 Entering Gaussian System, Link 0=g16
 Input=Conformes_3_MM_water_ESP.gjf
 Output=Conformes_3_MM_water_ESP.log
 Initial command:
 /home/Programs/g16_gost/l1.exe "/storage/users/gost/Gau-2302.inp" -scrdir="/storage/users/gost/"
 Entering Link 1 = /home/Programs/g16_gost/l1.exe PID=      2303.
  
 Copyright (c) 1988-2019, Gaussian, Inc.  All Rights Reserved.
  
 This is part of the Gaussian(R) 16 program.  It is based on
 the Gaussian(R) 09 system (copyright 2009, Gaussian, Inc.),
 the Gaussian(R) 03 system (copyright 2003, Gaussian, Inc.),
 the Gaussian(R) 98 system (copyright 1998, Gaussian, Inc.),
 the Gaussian(R) 94 system (copyright 1995, Gaussian, Inc.),
 the Gaussian 92(TM) system (copyright 1992, Gaussian, Inc.),
 the Gaussian 90(TM) system (copyright 1990, Gaussian, Inc.),
 the Gaussian 88(TM) system (copyright 1988, Gaussian, Inc.),
 the Gaussian 86(TM) system (copyright 1986, Carnegie Mellon
 University), and the Gaussian 82(TM) system (copyright 1983,
 Carnegie Mellon University). Gaussian is a federally registered
 trademark of Gaussian, Inc.
  
 This software contains proprietary and confidential information,
 including trade secrets, belonging to Gaussian, Inc.
  
 This software is provided under written license and may be
 used, copied, transmitted, or stored only in accord with that
 written license.
  
 The following legend is applicable only to US Government
 contracts under FAR:
  
                    RESTRICTED RIGHTS LEGEND
  
 Use, reproduction and disclosure by the US Government is
 subject to restrictions as set forth in subparagraphs (a)
 and (c) of the Commercial Computer Software - Restricted
 Rights clause in FAR 52.227-19.
  
 Gaussian, Inc.
 340 Quinnipiac St., Bldg. 40, Wallingford CT 06492
  
  
 ---------------------------------------------------------------
 Warning -- This program may not be used in any manner that
 competes with the business of Gaussian, Inc. or will provide
 assistance to any competitor of Gaussian, Inc.  The licensee
 of this program is prohibited from giving any competitor of
 Gaussian, Inc. access to this program.  By using this program,
 the user acknowledges that Gaussian, Inc. is engaged in the
 business of creating and licensing software in the field of
 computational chemistry and represents and warrants to the
 licensee that it is not a competitor of Gaussian, Inc. and that
 it will not use this program in any manner prohibited above.
 ---------------------------------------------------------------
  

 Cite this work as:
 Gaussian 16, Revision C.01,
 M. J. Frisch, G. W. Trucks, H. B. Schlegel, G. E. Scuseria, 
 M. A. Robb, J. R. Cheeseman, G. Scalmani, V. Barone, 
 G. A. Petersson, H. Nakatsuji, X. Li, M. Caricato, A. V. Marenich, 
 J. Bloino, B. G. Janesko, R. Gomperts, B. Mennucci, H. P. Hratchian, 
 J. V. Ortiz, A. F. Izmaylov, J. L. Sonnenberg, D. Williams-Young, 
 F. Ding, F. Lipparini, F. Egidi, J. Goings, B. Peng, A. Petrone, 
 T. Henderson, D. Ranasinghe, V. G. Zakrzewski, J. Gao, N. Rega, 
 G. Zheng, W. Liang, M. Hada, M. Ehara, K. Toyota, R. Fukuda, 
 J. Hasegawa, M. Ishida, T. Nakajima, Y. Honda, O. Kitao, H. Nakai, 
 T. Vreven, K. Throssell, J. A. Montgomery, Jr., J. E. Peralta, 
 F. Ogliaro, M. J. Bearpark, J. J. Heyd, E. N. Brothers, K. N. Kudin, 
 V. N. Staroverov, T. A. Keith, R. Kobayashi, J. Normand, 
 K. Raghavachari, A. P. Rendell, J. C. Burant, S. S. Iyengar, 
 J. Tomasi, M. Cossi, J. M. Millam, M. Klene, C. Adamo, R. Cammi, 
 J. W. Ochterski, R. L. Martin, K. Morokuma, O. Farkas, 
 J. B. Foresman, and D. J. Fox, Gaussian, Inc., Wallingford CT, 2019.
 
 ******************************************
 Gaussian 16:  EM64L-G16RevC.01  3-Jul-2019
                11-Nov-2022 
 ******************************************
 %chk=Conformes_3_MM_water_ESP.chk
 %mem=32GB
 %nprocshared=8
 Will use up to    8 processors via shared memory.
 ----------------------------------------------------------------------
 #HF 6-31g(d) scf=nosymm test pop=MK iop(6/33=2) iop(6/42=6) geom=dista
 nce
 ----------------------------------------------------------------------
 1/38=1,172=1/1;
 2/9=2,12=2,17=6,18=5,40=1/2;
 3/5=1,6=6,7=1,11=9,25=1,30=1/1,2,3;
 4/9=2/1;
 5/5=2,38=5/2;
 6/7=2,8=2,9=2,10=2,15=8,20=1,28=1,33=2,42=6/1,2;
 99/5=1,9=1/99;
 ---------------
 conformer 3 ESP
 ---------------
 Symbolic Z-matrix:
 Charge =  0 Multiplicity = 1
 C                    -1.5069    0.54446  -0.14103 
 C                    -0.73494  -0.60723   0.09991 
 C                    -2.88323   0.54731   0.0501 
 C                    -3.56383  -0.60656   0.49243 
 C                    -1.4175   -1.75457   0.54202 
 C                    -2.79702  -1.75684   0.73549 
 C                     0.73488  -0.60722  -0.09991 
 C                     1.50683   0.54446   0.14111 
 C                     1.41743  -1.75452  -0.54212 
 C                     2.79696  -1.75677  -0.73561 
 C                     2.88316   0.54733  -0.05003 
 C                     3.56376  -0.60651  -0.49246 
 N                    -4.95275  -0.58374   0.62538 
 O                     3.61765   1.70669   0.15517 
 C                     4.0884    1.86907   1.50071 
 N                     4.95268  -0.58365  -0.62543 
 H                    -1.04149   1.45979  -0.49566 
 H                    -0.85767  -2.65721   0.76986 
 H                     1.04143   1.45975   0.49582 
 H                     0.85761  -2.65715  -0.77003 
 H                     3.29133  -2.65788  -1.09117 
 H                    -5.31644   0.34768   0.79678 
 H                    -5.3212   -1.25273   1.29216 
 H                     4.65784   2.801     1.52003 
 H                     3.2489    1.93882   2.20306 
 H                     4.73862   1.03676   1.79578 
 H                     5.31633   0.34773  -0.79717 
 H                     5.32114  -1.25283  -1.29201 
 O                    -3.61776   1.70667  -0.15501 
 C                    -4.08799   1.86945  -1.50068 
 H                    -3.2914   -2.65799   1.09095 
 H                    -4.65754   2.80131  -1.51991 
 H                    -3.24822   1.93956  -2.20267 
 H                    -4.73797   1.03715  -1.79629 
 
                          Input orientation:                          
 ---------------------------------------------------------------------
 Center     Atomic      Atomic             Coordinates (Angstroms)
 Number     Number       Type             X           Y           Z
 ---------------------------------------------------------------------
      1          6           0       -1.506896    0.544462   -0.141028
      2          6           0       -0.734944   -0.607233    0.099906
      3          6           0       -2.883230    0.547311    0.050103
      4          6           0       -3.563833   -0.606562    0.492429
      5          6           0       -1.417496   -1.754572    0.542023
      6          6           0       -2.797022   -1.756838    0.735490
      7          6           0        0.734879   -0.607224   -0.099914
      8          6           0        1.506829    0.544457    0.141106
      9          6           0        1.417430   -1.754524   -0.542122
     10          6           0        2.796956   -1.756765   -0.735613
     11          6           0        2.883160    0.547326   -0.050025
     12          6           0        3.563761   -0.606509   -0.492462
     13          7           0       -4.952746   -0.583742    0.625381
     14          8           0        3.617650    1.706691    0.155168
     15          6           0        4.088404    1.869069    1.500707
     16          7           0        4.952681   -0.583649   -0.625434
     17          1           0       -1.041489    1.459786   -0.495660
     18          1           0       -0.857670   -2.657214    0.769856
     19          1           0        1.041425    1.459750    0.495823
     20          1           0        0.857605   -2.657148   -0.770027
     21          1           0        3.291328   -2.657883   -1.091165
     22          1           0       -5.316442    0.347677    0.796778
     23          1           0       -5.321204   -1.252725    1.292156
     24          1           0        4.657835    2.801001    1.520030
     25          1           0        3.248900    1.938821    2.203058
     26          1           0        4.738620    1.036762    1.795776
     27          1           0        5.316329    0.347728   -0.797170
     28          1           0        5.321140   -1.252832   -1.292010
     29          8           0       -3.617756    1.706672   -0.155005
     30          6           0       -4.087988    1.869448   -1.500676
     31          1           0       -3.291400   -2.657990    1.090945
     32          1           0       -4.657544    2.801305   -1.519909
     33          1           0       -3.248218    1.939556   -2.202673
     34          1           0       -4.737968    1.037148   -1.796293
 ---------------------------------------------------------------------
                    Distance matrix (angstroms):
                    1          2          3          4          5
     1  C    0.000000
     2  C    1.407253   0.000000
     3  C    1.389545   2.439382   0.000000
     4  C    2.440720   2.855992   1.410778   0.000000
     5  C    2.400023   1.406318   2.772909   2.434574   0.000000
     6  C    2.780052   2.444939   2.405471   1.403643   1.393028
     7  C    2.520640   1.483343   3.800812   4.339331   2.522144
     8  C    3.026902   2.520641   4.391003   5.211515   3.741383
     9  C    3.741376   2.522140   4.913741   5.215467   3.035157
    10  C    4.916535   3.807077   6.179857   6.579566   4.403858
    11  C    4.391000   3.800811   5.767259   6.571867   4.913746
    12  C    5.211507   4.339328   6.571862   7.195318   5.215470
    13  N    3.705956   4.250474   2.427575   1.395448   3.725021
    14  O    5.263030   4.929744   6.604290   7.552389   6.122311
    15  C    5.979737   5.599911   7.242581   8.105683   6.660689
    16  N    6.575212   5.733738   7.945875   8.589596   6.581274
    17  H    1.086363   2.172841   2.126612   3.407100   3.398568
    18  H    3.391450   2.160166   3.858746   3.406678   1.086313
    19  H    2.781595   2.754025   4.053903   5.047579   4.047257
    20  H    4.029493   2.737727   4.993497   5.034661   2.777085
    21  H    5.846429   4.672760   7.049888   7.328637   5.065205
    22  H    3.928211   4.731554   2.553017   2.018623   4.436906
    23  H    4.453408   4.782458   3.275140   2.036036   4.006680
    24  H    6.771631   6.535662   8.006714   8.958977   7.656330
    25  H    5.482387   5.174616   6.646393   7.471182   6.178628
    26  H    6.557442   5.961426   7.834509   8.563291   6.874679
    27  H    6.857523   6.191494   8.245634   9.023913   7.180355
    28  H    7.153817   6.247430   8.506084   9.085408   7.001759
    29  O    2.409701   3.705367   1.387702   2.402734   4.160193
    30  C    3.204102   4.465279   2.367362   3.221464   4.943447
    31  H    3.867546   3.423920   3.394688   2.154251   2.151510
    32  H    4.113543   5.443227   3.270110   4.106004   5.958648
    33  H    3.037905   4.254944   2.673305   3.721009   4.952926
    34  H    3.663669   4.724803   2.662550   3.052642   4.928180
                    6          7          8          9         10
     6  C    0.000000
     7  C    3.807077   0.000000
     8  C    4.916542   1.407255   0.000000
     9  C    4.403851   1.406315   2.400022   0.000000
    10  C    5.784180   2.444937   2.780052   1.393031   0.000000
    11  C    6.179860   2.439382   1.389542   2.772911   2.405472
    12  C    6.579566   2.855988   2.440717   2.434572   1.403639
    13  N    2.456710   5.733732   6.575216   6.581256   7.955260
    14  O    7.313058   3.705353   2.409679   4.160191   3.669136
    15  C    7.819325   4.465439   3.204316   4.943448   4.451476
    16  N    7.955274   4.250480   3.705955   3.725035   2.456724
    17  H    3.865785   2.754020   2.781586   4.047250   5.013725
    18  H    2.138444   2.737731   4.029501   2.777088   4.053830
    19  H    5.013737   2.172845   1.086364   3.398568   3.865785
    20  H    4.053818   2.160162   3.391450   1.086312   2.138447
    21  H    6.420012   3.423918   3.867546   2.151511   1.087582
    22  H    3.283324   6.191476   6.857525   7.180316   8.520805
    23  H    2.633534   6.247453   7.153797   7.001826   8.382746
    24  H    8.772930   5.443326   4.113668   5.958649   5.415166
    25  H    7.236354   4.255153   3.038208   4.952887   4.743142
    26  H    8.106436   4.725069   3.663983   4.928220   4.240493
    27  H    8.520840   4.731573   3.928276   4.436883   3.283279
    28  H    8.382681   4.782436   4.453430   4.006617   2.633445
    29  O    3.669126   4.929765   5.263060   6.122323   7.313073
    30  C    4.451627   5.599650   5.979383   6.660452   7.819028
    31  H    1.087581   4.672762   5.846440   5.065199   6.420016
    32  H    5.415259   6.535494   6.771398   7.656171   8.772724
    33  H    4.743386   5.174239   5.481795   6.178343   7.235965
    34  H    4.240702   5.961016   6.556962   6.874249   8.105928
                   11         12         13         14         15
    11  C    0.000000
    12  C    1.410781   0.000000
    13  N    7.945874   8.589586   0.000000
    14  O    1.387698   2.402753   8.883629   0.000000
    15  C    2.367359   3.221251   9.408766   1.434730   0.000000
    16  N    2.427574   1.395458   9.984088   2.763567   3.359059
    17  H    4.053892   5.047565   4.553095   4.710851   5.519855
    18  H    4.993505   5.034669   4.592364   6.280923   6.744259
    19  H    2.126607   3.407097   6.334251   2.610356   3.234411
    20  H    3.858747   3.406676   6.325058   5.245658   6.006741
    21  H    3.394693   2.154252   8.672563   4.550751   5.276971
    22  H    8.245630   9.023891   1.014492   9.059613   9.553077
    23  H    8.506070   9.085431   1.013848   9.484408   9.916139
    24  H    3.270106   4.105879  10.228399   2.035276   1.092301
    25  H    2.673276   3.720708   8.724642   2.093732   1.096781
    26  H    2.662567   3.052321   9.895374   2.096896   1.096623
    27  H    2.553111   2.018641  10.408900   2.374708   3.017038
    28  H    3.275186   2.036023  10.472669   3.708771   4.366368
    29  O    6.604318   7.552408   2.763548   7.242051   7.883696
    30  C    7.242189   8.105314   3.359474   7.883221   8.709861
    31  H    7.049897   7.328641   2.698022   8.225636   8.667391
    32  H    8.006447   8.958722   4.018452   8.513689   9.299720
    33  H    6.645750   7.470631   4.155760   7.263180   8.218638
    34  H    7.833963   8.562727   2.921972   8.606558   9.458707
                   16         17         18         19         20
    16  N    0.000000
    17  H    6.334236   0.000000
    18  H    6.325084   4.311033   0.000000
    19  H    4.553089   2.306853   4.542141   0.000000
    20  H    4.592380   4.542134   2.305083   4.311034   0.000000
    21  H    2.698045   6.006923   4.547261   4.953332   2.454819
    22  H   10.408888   4.602435   5.376871   6.461405   7.042919
    23  H   10.472704   5.373078   4.708346   6.962379   6.663534
    24  H    4.018184   6.192266   7.795875   3.990786   7.034024
    25  H    4.155249   5.091168   6.327837   2.831449   5.973312
    26  H    2.921269   6.232117   6.783541   3.941833   5.940589
    27  H    1.014493   6.461380   7.042976   4.602524   5.376824
    28  H    1.013850   6.962436   6.663428   5.373119   4.708260
    29  O    8.883652   2.610393   5.245660   4.710893   6.280926
    30  C    9.408370   3.234043   6.006741   5.519487   6.744094
    31  H    8.672584   4.953332   2.454820   6.006940   4.547248
    32  H   10.228119   3.990565   7.034024   6.192027   7.795762
    33  H    8.724047   2.830852   5.973353   5.090494   6.327712
    34  H    9.894775   3.941348   5.940551   6.231675   6.783176
                   21         22         23         24         25
    21  H    0.000000
    22  H    9.310823   0.000000
    23  H    9.046015   1.675323   0.000000
    24  H    6.203636  10.296994  10.773386   0.000000
    25  H    5.655386   8.824650   9.190342   1.787451   0.000000
    26  H    4.907085  10.128036  10.329349   1.787485   1.788534
    27  H    3.636036  10.751581  10.958277   3.438252   3.975828
    28  H    2.476821  10.958230  10.951593   4.978062   5.166849
    29  O    8.225641   2.374509   3.708644   8.514030   7.263974
    30  C    8.667106   3.017148   4.366772   9.299563   8.219026
    31  H    6.934977   3.636119   2.476966   9.652722   8.071121
    32  H    9.652519   3.438237   4.978284   9.798853   8.781584
    33  H    8.070784   3.975970   5.167374   8.781018   7.850032
    34  H    8.866795   2.744817   3.888727  10.118809   8.977632
                   26         27         28         29         30
    26  H    0.000000
    27  H    2.744428   0.000000
    28  H    3.887929   1.675316   0.000000
    29  O    8.607168   9.059635   9.484477   0.000000
    30  C    9.458804   9.552577   9.915839   1.434728   0.000000
    31  H    8.867311   9.310871   9.045927   4.550733   5.277191
    32  H   10.119055  10.296627  10.773212   2.035275   1.092301
    33  H    8.977317   8.823878   9.189915   2.093738   1.096781
    34  H   10.134529  10.127311  10.328793   2.096894   1.096625
                   31         32         33         34
    31  H    0.000000
    32  H    6.203774   0.000000
    33  H    5.655724   1.787450   0.000000
    34  H    4.907418   1.787486   1.788530   0.000000
 Stoichiometry    C14H16N2O2
 Framework group  C1[X(C14H16N2O2)]
 Deg. of freedom    96
 Full point group                 C1      NOp   1
 Largest Abelian subgroup         C1      NOp   1
 Largest concise Abelian subgroup C1      NOp   1
                         Standard orientation:                         
 ---------------------------------------------------------------------
 Center     Atomic      Atomic             Coordinates (Angstroms)
 Number     Number       Type             X           Y           Z
 ---------------------------------------------------------------------
      1          6           0        1.506896    0.544462    0.141028
      2          6           0        0.734944   -0.607233   -0.099906
      3          6           0        2.883230    0.547311   -0.050103
      4          6           0        3.563833   -0.606562   -0.492429
      5          6           0        1.417496   -1.754572   -0.542023
      6          6           0        2.797022   -1.756838   -0.735490
      7          6           0       -0.734879   -0.607224    0.099914
      8          6           0       -1.506829    0.544457   -0.141106
      9          6           0       -1.417430   -1.754524    0.542122
     10          6           0       -2.796956   -1.756765    0.735613
     11          6           0       -2.883160    0.547326    0.050025
     12          6           0       -3.563761   -0.606509    0.492462
     13          7           0        4.952746   -0.583742   -0.625381
     14          8           0       -3.617650    1.706691   -0.155168
     15          6           0       -4.088404    1.869069   -1.500707
     16          7           0       -4.952681   -0.583649    0.625434
     17          1           0        1.041489    1.459786    0.495660
     18          1           0        0.857670   -2.657214   -0.769856
     19          1           0       -1.041425    1.459750   -0.495823
     20          1           0       -0.857605   -2.657148    0.770027
     21          1           0       -3.291328   -2.657883    1.091165
     22          1           0        5.316442    0.347677   -0.796778
     23          1           0        5.321204   -1.252725   -1.292156
     24          1           0       -4.657835    2.801001   -1.520030
     25          1           0       -3.248900    1.938821   -2.203058
     26          1           0       -4.738620    1.036762   -1.795776
     27          1           0       -5.316329    0.347728    0.797170
     28          1           0       -5.321140   -1.252832    1.292010
     29          8           0        3.617756    1.706672    0.155005
     30          6           0        4.087988    1.869448    1.500676
     31          1           0        3.291400   -2.657990   -1.090945
     32          1           0        4.657544    2.801305    1.519909
     33          1           0        3.248218    1.939556    2.202673
     34          1           0        4.737968    1.037148    1.796293
 ---------------------------------------------------------------------
 Rotational constants (GHZ):           0.9185058           0.1881243           0.1688726
 Standard basis: 6-31G(d) (6D, 7F)
 There are   302 symmetry adapted cartesian basis functions of A   symmetry.
 There are   302 symmetry adapted basis functions of A   symmetry.
   302 basis functions,   568 primitive gaussians,   302 cartesian basis functions
    65 alpha electrons       65 beta electrons
       nuclear repulsion energy      1241.2789585436 Hartrees.
 NAtoms=   34 NActive=   34 NUniq=   34 SFac= 1.00D+00 NAtFMM=   60 NAOKFM=F Big=F
 Integral buffers will be    131072 words long.
 Raffenetti 1 integral format.
 Two-electron integral symmetry is turned on.
 One-electron integrals computed using PRISM.
 NBasis=   302 RedAO= T EigKep=  3.40D-04  NBF=   302
 NBsUse=   302 1.00D-06 EigRej= -1.00D+00 NBFU=   302
 SCF N**3 symmetry information disabled.
 ExpMin= 1.61D-01 ExpMax= 5.48D+03 ExpMxC= 8.25D+02 IAcc=3 IRadAn=         5 AccDes= 0.00D+00
 Harris functional with IExCor=  205 and IRadAn=       5 diagonalized for initial guess.
 HarFok:  IExCor=  205 AccDes= 0.00D+00 IRadAn=         5 IDoV= 1 UseB2=F ITyADJ=14
 ICtDFT=  3500011 ScaDFX=  1.000000  1.000000  1.000000  1.000000
 FoFCou: FMM=F IPFlag=           0 FMFlag=      100000 FMFlg1=           0
         NFxFlg=           0 DoJE=T BraDBF=F KetDBF=T FulRan=T
         wScrn=  0.000000 ICntrl=       500 IOpCl=  0 I1Cent=   200000004 NGrid=           0
         NMat0=    1 NMatS0=      1 NMatT0=    0 NMatD0=    1 NMtDS0=    0 NMtDT0=    0
 Petite list used in FoFCou.
 Requested convergence on RMS density matrix=1.00D-08 within 128 cycles.
 Requested convergence on MAX density matrix=1.00D-06.
 Requested convergence on             energy=1.00D-06.
 No special actions if energy rises.
 Integral accuracy reduced to 1.0D-05 until final iterations.
 Initial convergence to 1.0D-05 achieved.  Increase integral accuracy.
 SCF Done:  E(RHF) =  -798.061132859     A.U. after   15 cycles
            NFock= 15  Conv=0.71D-08     -V/T= 2.0024
 SCF density gives NOpUse=  1 NOpAll=  1.

 **********************************************************************

            Population analysis using the SCF Density.

 **********************************************************************

 Orbital symmetries:
 BldTbl:  Degeneracy threshold= 1.00D-02
       Occupied  (A) (A) (A) (A) (A) (A) (A) (A) (A) (A) (A) (A)
                 (A) (A) (A) (A) (A) (A) (A) (A) (A) (A) (A) (A)
                 (A) (A) (A) (A) (A) (A) (A) (A) (A) (A) (A) (A)
                 (A) (A) (A) (A) (A) (A) (A) (A) (A) (A) (A) (A)
                 (A) (A) (A) (A) (A) (A) (A) (A) (A) (A) (A) (A)
                 (A) (A) (A) (A) (A)
       Virtual   (A) (A) (A) (A) (A) (A) (A) (A) (A) (A) (A) (A)
                 (A) (A) (A) (A) (A) (A) (A) (A) (A) (A) (A) (A)
                 (A) (A) (A) (A) (A) (A) (A) (A) (A) (A) (A) (A)
                 (A) (A) (A) (A) (A) (A) (A) (A) (A) (A) (A) (A)
                 (A) (A) (A) (A) (A) (A) (A) (A) (A) (A) (A) (A)
                 (A) (A) (A) (A) (A) (A) (A) (A) (A) (A) (A) (A)
                 (A) (A) (A) (A) (A) (A) (A) (A) (A) (A) (A) (A)
                 (A) (A) (A) (A) (A) (A) (A) (A) (A) (A) (A) (A)
                 (A) (A) (A) (A) (A) (A) (A) (A) (A) (A) (A) (A)
                 (A) (A) (A) (A) (A) (A) (A) (A) (A) (A) (A) (A)
                 (A) (A) (A) (A) (A) (A) (A) (A) (A) (A) (A) (A)
                 (A) (A) (A) (A) (A) (A) (A) (A) (A) (A) (A) (A)
                 (A) (A) (A) (A) (A) (A) (A) (A) (A) (A) (A) (A)
                 (A) (A) (A) (A) (A) (A) (A) (A) (A) (A) (A) (A)
                 (A) (A) (A) (A) (A) (A) (A) (A) (A) (A) (A) (A)
                 (A) (A) (A) (A) (A) (A) (A) (A) (A) (A) (A) (A)
                 (A) (A) (A) (A) (A) (A) (A) (A) (A) (A) (A) (A)
                 (A) (A) (A) (A) (A) (A) (A) (A) (A) (A) (A) (A)
                 (A) (A) (A) (A) (A) (A) (A) (A) (A) (A) (A) (A)
                 (A) (A) (A) (A) (A) (A) (A) (A) (A)
 The electronic state is 1-A.
 Alpha  occ. eigenvalues --  -20.57419 -20.57418 -15.56321 -15.56320 -11.27799
 Alpha  occ. eigenvalues --  -11.27799 -11.27661 -11.27661 -11.27252 -11.27251
 Alpha  occ. eigenvalues --  -11.23362 -11.23294 -11.23031 -11.23029 -11.22933
 Alpha  occ. eigenvalues --  -11.22931 -11.22664 -11.22663  -1.38412  -1.38410
 Alpha  occ. eigenvalues --   -1.21341  -1.21274  -1.14232  -1.10690  -1.01683
 Alpha  occ. eigenvalues --   -1.00967  -1.00239  -0.95570  -0.92607  -0.91779
 Alpha  occ. eigenvalues --   -0.84266  -0.82260  -0.81406  -0.77140  -0.70996
 Alpha  occ. eigenvalues --   -0.70160  -0.68662  -0.68125  -0.67707  -0.65378
 Alpha  occ. eigenvalues --   -0.62741  -0.62360  -0.62239  -0.61899  -0.61413
 Alpha  occ. eigenvalues --   -0.59660  -0.59041  -0.58351  -0.57496  -0.55621
 Alpha  occ. eigenvalues --   -0.53463  -0.52405  -0.51278  -0.50922  -0.50265
 Alpha  occ. eigenvalues --   -0.49195  -0.47952  -0.46042  -0.44098  -0.43655
 Alpha  occ. eigenvalues --   -0.42428  -0.32805  -0.32421  -0.31192  -0.25206
 Alpha virt. eigenvalues --    0.12555   0.14416   0.15277   0.20454   0.23046
 Alpha virt. eigenvalues --    0.23141   0.25426   0.26099   0.26127   0.26967
 Alpha virt. eigenvalues --    0.29385   0.30218   0.30957   0.31460   0.31892
 Alpha virt. eigenvalues --    0.32485   0.32520   0.32953   0.33456   0.34155
 Alpha virt. eigenvalues --    0.35076   0.35912   0.39554   0.40618   0.43085
 Alpha virt. eigenvalues --    0.44670   0.45528   0.47748   0.49553   0.51673
 Alpha virt. eigenvalues --    0.51845   0.53790   0.55107   0.57261   0.57907
 Alpha virt. eigenvalues --    0.63415   0.65703   0.67598   0.69719   0.70706
 Alpha virt. eigenvalues --    0.71252   0.74423   0.75193   0.75764   0.76572
 Alpha virt. eigenvalues --    0.77459   0.77591   0.77686   0.78007   0.78684
 Alpha virt. eigenvalues --    0.79457   0.81263   0.81432   0.81652   0.82449
 Alpha virt. eigenvalues --    0.83726   0.86740   0.86961   0.87737   0.87783
 Alpha virt. eigenvalues --    0.90237   0.90648   0.91007   0.92967   0.93634
 Alpha virt. eigenvalues --    0.94366   0.96184   0.97191   0.97831   0.99499
 Alpha virt. eigenvalues --    1.01412   1.03538   1.04231   1.06509   1.06574
 Alpha virt. eigenvalues --    1.07623   1.09020   1.11152   1.11156   1.11917
 Alpha virt. eigenvalues --    1.12187   1.12994   1.13949   1.14046   1.14655
 Alpha virt. eigenvalues --    1.14994   1.15327   1.17858   1.19204   1.19759
 Alpha virt. eigenvalues --    1.19972   1.20268   1.21985   1.22304   1.22337
 Alpha virt. eigenvalues --    1.24841   1.25005   1.26478   1.27262   1.27861
 Alpha virt. eigenvalues --    1.29042   1.30077   1.30692   1.33088   1.35241
 Alpha virt. eigenvalues --    1.35863   1.38452   1.39232   1.40803   1.42756
 Alpha virt. eigenvalues --    1.43760   1.44411   1.46092   1.48949   1.49459
 Alpha virt. eigenvalues --    1.50386   1.53018   1.54470   1.55601   1.60409
 Alpha virt. eigenvalues --    1.60511   1.61931   1.65891   1.68638   1.69562
 Alpha virt. eigenvalues --    1.70602   1.70752   1.73953   1.74446   1.77968
 Alpha virt. eigenvalues --    1.78313   1.79127   1.79508   1.79577   1.81736
 Alpha virt. eigenvalues --    1.84911   1.86325   1.92849   1.95776   1.98602
 Alpha virt. eigenvalues --    2.05791   2.06873   2.07681   2.08263   2.08844
 Alpha virt. eigenvalues --    2.09372   2.11089   2.12740   2.17670   2.17859
 Alpha virt. eigenvalues --    2.19630   2.19844   2.22977   2.24784   2.25995
 Alpha virt. eigenvalues --    2.26059   2.27566   2.28694   2.31585   2.35311
 Alpha virt. eigenvalues --    2.36785   2.36887   2.37638   2.38651   2.39550
 Alpha virt. eigenvalues --    2.39775   2.41249   2.45448   2.46136   2.46793
 Alpha virt. eigenvalues --    2.47337   2.49784   2.50396   2.50421   2.53406
 Alpha virt. eigenvalues --    2.53947   2.55298   2.59928   2.60227   2.61955
 Alpha virt. eigenvalues --    2.62331   2.62824   2.64922   2.70030   2.73131
 Alpha virt. eigenvalues --    2.74072   2.74671   2.76352   2.77598   2.80317
 Alpha virt. eigenvalues --    2.80375   2.81524   2.84493   2.90196   2.90869
 Alpha virt. eigenvalues --    2.91799   2.94430   2.95069   2.98838   3.00348
 Alpha virt. eigenvalues --    3.03387   3.05675   3.06683   3.12809   3.13906
 Alpha virt. eigenvalues --    3.17318   3.17375   3.21291   3.21375   3.25239
 Alpha virt. eigenvalues --    3.25531   3.31749   3.37876   3.42279   3.43855
 Alpha virt. eigenvalues --    3.52997   3.65054   3.75787   3.86492   4.25704
 Alpha virt. eigenvalues --    4.26480   4.52243   4.53333   4.53503   4.53527
 Alpha virt. eigenvalues --    4.55654   4.60527   4.64708   4.65093   4.70716
 Alpha virt. eigenvalues --    4.71718   4.76197   4.82388   4.86752   4.99375
 Alpha virt. eigenvalues --    5.22191   5.30102
          Condensed to atoms (all electrons):
               1          2          3          4          5          6
     1  C    5.024145   0.514672   0.563099  -0.056708  -0.047979  -0.037761
     2  C    0.514672   4.788345  -0.043065  -0.019863   0.562083  -0.043053
     3  C    0.563099  -0.043065   4.569040   0.558988  -0.031284  -0.033899
     4  C   -0.056708  -0.019863   0.558988   4.607768  -0.040769   0.543022
     5  C   -0.047979   0.562083  -0.031284  -0.040769   4.928140   0.530483
     6  C   -0.037761  -0.043053  -0.033899   0.543022   0.530483   4.997524
     7  C   -0.036047   0.367942   0.002195   0.000433  -0.043065   0.003625
     8  C   -0.008906  -0.036047   0.000191  -0.000003   0.003091  -0.000090
     9  C    0.003091  -0.043066  -0.000049  -0.000004  -0.009483   0.000206
    10  C   -0.000090   0.003625   0.000001  -0.000000   0.000206  -0.000001
    11  C    0.000191   0.002195  -0.000005  -0.000000  -0.000049   0.000001
    12  C   -0.000003   0.000433  -0.000000   0.000000  -0.000004  -0.000000
    13  N    0.003767   0.000006  -0.067172   0.298614   0.002977  -0.064604
    14  O    0.000001  -0.000065  -0.000000  -0.000000   0.000000   0.000000
    15  C   -0.000000   0.000002  -0.000000   0.000000   0.000000   0.000000
    16  N    0.000000  -0.000001   0.000000   0.000000   0.000000  -0.000000
    17  H    0.368857  -0.027149  -0.027804   0.002806   0.002924   0.000057
    18  H    0.002712  -0.029717   0.000456   0.001396   0.375238  -0.027723
    19  H    0.002855  -0.001920   0.000053  -0.000001  -0.000035  -0.000010
    20  H   -0.000073  -0.001032  -0.000001  -0.000010   0.002756   0.000041
    21  H    0.000001  -0.000108  -0.000000   0.000000  -0.000002  -0.000000
    22  H    0.000212  -0.000012  -0.010156  -0.029346  -0.000082   0.003823
    23  H   -0.000068  -0.000003   0.003917  -0.031844   0.000064  -0.004798
    24  H    0.000000  -0.000000  -0.000000  -0.000000  -0.000000  -0.000000
    25  H   -0.000001   0.000005  -0.000000  -0.000000  -0.000000   0.000000
    26  H    0.000000  -0.000000  -0.000000  -0.000000  -0.000000   0.000000
    27  H    0.000000   0.000000   0.000000   0.000000  -0.000000  -0.000000
    28  H    0.000000  -0.000000   0.000000   0.000000  -0.000000  -0.000000
    29  O   -0.046346   0.003089   0.209584  -0.058133   0.000024   0.003714
    30  C   -0.003730  -0.000160  -0.042339  -0.003575   0.000038  -0.000196
    31  H    0.000301   0.001368   0.001708  -0.031386  -0.023110   0.375470
    32  H   -0.000113   0.000003   0.004855  -0.000151  -0.000000   0.000004
    33  H    0.001776  -0.000332  -0.000976   0.000393  -0.000012   0.000032
    34  H    0.000714   0.000057  -0.003246   0.001763  -0.000001  -0.000302
               7          8          9         10         11         12
     1  C   -0.036047  -0.008906   0.003091  -0.000090   0.000191  -0.000003
     2  C    0.367942  -0.036047  -0.043066   0.003625   0.002195   0.000433
     3  C    0.002195   0.000191  -0.000049   0.000001  -0.000005  -0.000000
     4  C    0.000433  -0.000003  -0.000004  -0.000000  -0.000000   0.000000
     5  C   -0.043065   0.003091  -0.009483   0.000206  -0.000049  -0.000004
     6  C    0.003625  -0.000090   0.000206  -0.000001   0.000001  -0.000000
     7  C    4.788348   0.514663   0.562088  -0.043052  -0.043068  -0.019861
     8  C    0.514663   5.024135  -0.047978  -0.037761   0.563126  -0.056714
     9  C    0.562088  -0.047978   4.928144   0.530473  -0.031284  -0.040769
    10  C   -0.043052  -0.037761   0.530473   4.997531  -0.033898   0.543030
    11  C   -0.043068   0.563126  -0.031284  -0.033898   4.569012   0.558968
    12  C   -0.019861  -0.056714  -0.040769   0.543030   0.558968   4.607811
    13  N   -0.000001   0.000000   0.000000  -0.000000   0.000000   0.000000
    14  O    0.003089  -0.046346   0.000024   0.003714   0.209599  -0.058143
    15  C   -0.000160  -0.003729   0.000038  -0.000195  -0.042338  -0.003575
    16  N    0.000006   0.003766   0.002977  -0.064604  -0.067173   0.298610
    17  H   -0.001920   0.002855  -0.000035  -0.000010   0.000053  -0.000001
    18  H   -0.001032  -0.000073   0.002756   0.000041  -0.000001  -0.000010
    19  H   -0.027151   0.368857   0.002924   0.000057  -0.027802   0.002807
    20  H   -0.029717   0.002712   0.375238  -0.027723   0.000456   0.001396
    21  H    0.001368   0.000301  -0.023109   0.375469   0.001708  -0.031386
    22  H    0.000000   0.000000  -0.000000  -0.000000   0.000000   0.000000
    23  H   -0.000000   0.000000  -0.000000  -0.000000   0.000000   0.000000
    24  H    0.000003  -0.000113  -0.000000   0.000004   0.004855  -0.000151
    25  H   -0.000332   0.001778  -0.000012   0.000032  -0.000975   0.000394
    26  H    0.000057   0.000713  -0.000001  -0.000302  -0.003249   0.001762
    27  H   -0.000012   0.000211  -0.000082   0.003823  -0.010157  -0.029341
    28  H   -0.000003  -0.000067   0.000064  -0.004796   0.003918  -0.031851
    29  O   -0.000065   0.000001   0.000000   0.000000  -0.000000  -0.000000
    30  C    0.000002  -0.000000   0.000000   0.000000  -0.000000   0.000000
    31  H   -0.000108   0.000001  -0.000002  -0.000000  -0.000000   0.000000
    32  H   -0.000000   0.000000  -0.000000  -0.000000  -0.000000  -0.000000
    33  H    0.000005  -0.000001  -0.000000   0.000000  -0.000000  -0.000000
    34  H   -0.000000   0.000000  -0.000000   0.000000  -0.000000  -0.000000
              13         14         15         16         17         18
     1  C    0.003767   0.000001  -0.000000   0.000000   0.368857   0.002712
     2  C    0.000006  -0.000065   0.000002  -0.000001  -0.027149  -0.029717
     3  C   -0.067172  -0.000000  -0.000000   0.000000  -0.027804   0.000456
     4  C    0.298614  -0.000000   0.000000   0.000000   0.002806   0.001396
     5  C    0.002977   0.000000   0.000000   0.000000   0.002924   0.375238
     6  C   -0.064604   0.000000   0.000000  -0.000000   0.000057  -0.027723
     7  C   -0.000001   0.003089  -0.000160   0.000006  -0.001920  -0.001032
     8  C    0.000000  -0.046346  -0.003729   0.003766   0.002855  -0.000073
     9  C    0.000000   0.000024   0.000038   0.002977  -0.000035   0.002756
    10  C   -0.000000   0.003714  -0.000195  -0.064604  -0.000010   0.000041
    11  C    0.000000   0.209599  -0.042338  -0.067173   0.000053  -0.000001
    12  C    0.000000  -0.058143  -0.003575   0.298610  -0.000001  -0.000010
    13  N    7.080360  -0.000000   0.000000  -0.000000  -0.000066  -0.000070
    14  O   -0.000000   8.482206   0.199188  -0.008684  -0.000003   0.000000
    15  C    0.000000   0.199188   4.854631   0.000077   0.000001   0.000000
    16  N   -0.000000  -0.008684   0.000077   7.080353   0.000000  -0.000000
    17  H   -0.000066  -0.000003   0.000001   0.000000   0.459090  -0.000108
    18  H   -0.000070   0.000000   0.000000  -0.000000  -0.000108   0.470827
    19  H    0.000000  -0.000163   0.000349  -0.000066   0.000856   0.000002
    20  H   -0.000000   0.000001  -0.000000  -0.000070   0.000002   0.000589
    21  H   -0.000000  -0.000042   0.000001  -0.001969   0.000000   0.000004
    22  H    0.325354  -0.000000   0.000000   0.000000  -0.000006   0.000002
    23  H    0.332515  -0.000000   0.000000   0.000000   0.000002  -0.000005
    24  H    0.000000  -0.032836   0.394093  -0.000007  -0.000000  -0.000000
    25  H   -0.000000  -0.036460   0.388336   0.000030  -0.000001  -0.000000
    26  H   -0.000000  -0.035402   0.389946   0.001387  -0.000000  -0.000000
    27  H    0.000000   0.012580  -0.001810   0.325348   0.000000  -0.000000
    28  H    0.000000   0.000079  -0.000020   0.332519   0.000000  -0.000000
    29  O   -0.008692   0.000000  -0.000000  -0.000000  -0.000164   0.000001
    30  C    0.000081  -0.000000  -0.000000   0.000000   0.000349  -0.000000
    31  H   -0.001968   0.000000  -0.000000  -0.000000   0.000011  -0.001442
    32  H   -0.000007   0.000000   0.000000   0.000000  -0.000050   0.000000
    33  H    0.000030   0.000000   0.000000  -0.000000   0.000100  -0.000000
    34  H    0.001384   0.000000   0.000000  -0.000000   0.000100   0.000000
              19         20         21         22         23         24
     1  C    0.002855  -0.000073   0.000001   0.000212  -0.000068   0.000000
     2  C   -0.001920  -0.001032  -0.000108  -0.000012  -0.000003  -0.000000
     3  C    0.000053  -0.000001  -0.000000  -0.010156   0.003917  -0.000000
     4  C   -0.000001  -0.000010   0.000000  -0.029346  -0.031844  -0.000000
     5  C   -0.000035   0.002756  -0.000002  -0.000082   0.000064  -0.000000
     6  C   -0.000010   0.000041  -0.000000   0.003823  -0.004798  -0.000000
     7  C   -0.027151  -0.029717   0.001368   0.000000  -0.000000   0.000003
     8  C    0.368857   0.002712   0.000301   0.000000   0.000000  -0.000113
     9  C    0.002924   0.375238  -0.023109  -0.000000  -0.000000  -0.000000
    10  C    0.000057  -0.027723   0.375469  -0.000000  -0.000000   0.000004
    11  C   -0.027802   0.000456   0.001708   0.000000   0.000000   0.004855
    12  C    0.002807   0.001396  -0.031386   0.000000   0.000000  -0.000151
    13  N    0.000000  -0.000000  -0.000000   0.325354   0.332515   0.000000
    14  O   -0.000163   0.000001  -0.000042  -0.000000  -0.000000  -0.032836
    15  C    0.000349  -0.000000   0.000001   0.000000   0.000000   0.394093
    16  N   -0.000066  -0.000070  -0.001969   0.000000   0.000000  -0.000007
    17  H    0.000856   0.000002   0.000000  -0.000006   0.000002  -0.000000
    18  H    0.000002   0.000589   0.000004   0.000002  -0.000005  -0.000000
    19  H    0.459087  -0.000108   0.000011   0.000000   0.000000  -0.000050
    20  H   -0.000108   0.470826  -0.001442  -0.000000  -0.000000   0.000000
    21  H    0.000011  -0.001442   0.479333   0.000000   0.000000  -0.000000
    22  H    0.000000  -0.000000   0.000000   0.341417  -0.020842   0.000000
    23  H    0.000000  -0.000000   0.000000  -0.020842   0.358954   0.000000
    24  H   -0.000050   0.000000  -0.000000   0.000000   0.000000   0.517401
    25  H    0.000100  -0.000000  -0.000000  -0.000000  -0.000000  -0.028992
    26  H    0.000100   0.000000   0.000005  -0.000000  -0.000000  -0.029362
    27  H   -0.000006   0.000002  -0.000097   0.000000   0.000000  -0.000035
    28  H    0.000002  -0.000005   0.002751   0.000000   0.000000   0.000000
    29  O   -0.000003   0.000000   0.000000   0.012585   0.000079   0.000000
    30  C    0.000001   0.000000  -0.000000  -0.001810  -0.000020   0.000000
    31  H    0.000000   0.000004   0.000000  -0.000097   0.002750   0.000000
    32  H   -0.000000  -0.000000   0.000000  -0.000035   0.000000   0.000000
    33  H   -0.000001  -0.000000  -0.000000   0.000161   0.000000   0.000000
    34  H   -0.000000  -0.000000   0.000000  -0.001160   0.000019  -0.000000
              25         26         27         28         29         30
     1  C   -0.000001   0.000000   0.000000   0.000000  -0.046346  -0.003730
     2  C    0.000005  -0.000000   0.000000  -0.000000   0.003089  -0.000160
     3  C   -0.000000  -0.000000   0.000000   0.000000   0.209584  -0.042339
     4  C   -0.000000  -0.000000   0.000000   0.000000  -0.058133  -0.003575
     5  C   -0.000000  -0.000000  -0.000000  -0.000000   0.000024   0.000038
     6  C    0.000000   0.000000  -0.000000  -0.000000   0.003714  -0.000196
     7  C   -0.000332   0.000057  -0.000012  -0.000003  -0.000065   0.000002
     8  C    0.001778   0.000713   0.000211  -0.000067   0.000001  -0.000000
     9  C   -0.000012  -0.000001  -0.000082   0.000064   0.000000   0.000000
    10  C    0.000032  -0.000302   0.003823  -0.004796   0.000000   0.000000
    11  C   -0.000975  -0.003249  -0.010157   0.003918  -0.000000  -0.000000
    12  C    0.000394   0.001762  -0.029341  -0.031851  -0.000000   0.000000
    13  N   -0.000000  -0.000000   0.000000   0.000000  -0.008692   0.000081
    14  O   -0.036460  -0.035402   0.012580   0.000079   0.000000  -0.000000
    15  C    0.388336   0.389946  -0.001810  -0.000020  -0.000000  -0.000000
    16  N    0.000030   0.001387   0.325348   0.332519  -0.000000   0.000000
    17  H   -0.000001  -0.000000   0.000000   0.000000  -0.000164   0.000349
    18  H   -0.000000  -0.000000  -0.000000  -0.000000   0.000001  -0.000000
    19  H    0.000100   0.000100  -0.000006   0.000002  -0.000003   0.000001
    20  H   -0.000000   0.000000   0.000002  -0.000005   0.000000   0.000000
    21  H   -0.000000   0.000005  -0.000097   0.002751   0.000000  -0.000000
    22  H   -0.000000  -0.000000   0.000000   0.000000   0.012585  -0.001810
    23  H   -0.000000  -0.000000   0.000000   0.000000   0.000079  -0.000020
    24  H   -0.028992  -0.029362  -0.000035   0.000000   0.000000   0.000000
    25  H    0.552887  -0.037863   0.000161   0.000000   0.000000   0.000000
    26  H   -0.037863   0.539656  -0.001162   0.000019   0.000000   0.000000
    27  H    0.000161  -0.001162   0.341437  -0.020842  -0.000000   0.000000
    28  H    0.000000   0.000019  -0.020842   0.358955  -0.000000   0.000000
    29  O    0.000000   0.000000  -0.000000  -0.000000   8.482219   0.199191
    30  C    0.000000   0.000000   0.000000   0.000000   0.199191   4.854614
    31  H   -0.000000   0.000000   0.000000   0.000000  -0.000042   0.000001
    32  H    0.000000  -0.000000   0.000000   0.000000  -0.032836   0.394093
    33  H   -0.000000   0.000000  -0.000000  -0.000000  -0.036459   0.388338
    34  H    0.000000   0.000000  -0.000000  -0.000000  -0.035404   0.389943
              31         32         33         34
     1  C    0.000301  -0.000113   0.001776   0.000714
     2  C    0.001368   0.000003  -0.000332   0.000057
     3  C    0.001708   0.004855  -0.000976  -0.003246
     4  C   -0.031386  -0.000151   0.000393   0.001763
     5  C   -0.023110  -0.000000  -0.000012  -0.000001
     6  C    0.375470   0.000004   0.000032  -0.000302
     7  C   -0.000108  -0.000000   0.000005  -0.000000
     8  C    0.000001   0.000000  -0.000001   0.000000
     9  C   -0.000002  -0.000000  -0.000000  -0.000000
    10  C   -0.000000  -0.000000   0.000000   0.000000
    11  C   -0.000000  -0.000000  -0.000000  -0.000000
    12  C    0.000000  -0.000000  -0.000000  -0.000000
    13  N   -0.001968  -0.000007   0.000030   0.001384
    14  O    0.000000   0.000000   0.000000   0.000000
    15  C   -0.000000   0.000000   0.000000   0.000000
    16  N   -0.000000   0.000000  -0.000000  -0.000000
    17  H    0.000011  -0.000050   0.000100   0.000100
    18  H   -0.001442   0.000000  -0.000000   0.000000
    19  H    0.000000  -0.000000  -0.000001  -0.000000
    20  H    0.000004  -0.000000  -0.000000  -0.000000
    21  H    0.000000   0.000000  -0.000000   0.000000
    22  H   -0.000097  -0.000035   0.000161  -0.001160
    23  H    0.002750   0.000000   0.000000   0.000019
    24  H    0.000000   0.000000   0.000000  -0.000000
    25  H   -0.000000   0.000000  -0.000000   0.000000
    26  H    0.000000  -0.000000   0.000000   0.000000
    27  H    0.000000   0.000000  -0.000000  -0.000000
    28  H    0.000000   0.000000  -0.000000  -0.000000
    29  O   -0.000042  -0.032836  -0.036459  -0.035404
    30  C    0.000001   0.394093   0.388338   0.389943
    31  H    0.479330  -0.000000  -0.000000   0.000005
    32  H   -0.000000   0.517398  -0.028993  -0.029361
    33  H   -0.000000  -0.028993   0.552888  -0.037865
    34  H    0.000005  -0.029361  -0.037865   0.539676
 Mulliken charges:
               1
     1  C   -0.248571
     2  C    0.001767
     3  C    0.345910
     4  C    0.256611
     5  C   -0.212150
     6  C   -0.245566
     7  C    0.001771
     8  C   -0.248574
     9  C   -0.212152
    10  C   -0.245571
    11  C    0.345918
    12  C    0.256600
    13  N   -0.902509
    14  O   -0.692338
    15  C   -0.174834
    16  N   -0.902501
    17  H    0.219253
    18  H    0.206157
    19  H    0.219256
    20  H    0.206157
    21  H    0.197202
    22  H    0.379992
    23  H    0.359277
    24  H    0.175191
    25  H    0.160914
    26  H    0.173698
    27  H    0.379982
    28  H    0.359277
    29  O   -0.692344
    30  C   -0.174822
    31  H    0.197206
    32  H    0.175194
    33  H    0.160915
    34  H    0.173680
 Sum of Mulliken charges =  -0.00000
 Mulliken charges with hydrogens summed into heavy atoms:
               1
     1  C   -0.029317
     2  C    0.001767
     3  C    0.345910
     4  C    0.256611
     5  C   -0.005993
     6  C   -0.048360
     7  C    0.001771
     8  C   -0.029318
     9  C   -0.005994
    10  C   -0.048368
    11  C    0.345918
    12  C    0.256600
    13  N   -0.163240
    14  O   -0.692338
    15  C    0.334969
    16  N   -0.163242
    29  O   -0.692344
    30  C    0.334967
 DipInt: DoE/N= T F RetVal/Mat= T F Init=T NMatP=  1 IDeriv=0 Min/MaxMlt=  0  4
 Entering OneElI...
 OneElI was handed  4294731487 working-precision words.
 Multipole integrals L=0 to 4 MinM= 0 MaxM= 0.
 Requested accuracy = 0.1000D-12
 PrtBox:  NBox=     1 Levels=  1 BoxLen=   35.86 SMaxX=       20.11
          Shift=           10.055497            5.022873            4.163176
 Box      1 Number                   0 centers from      1 to    104:
 ShPair: Thresh= 1.00D-13 NBox=     1 BxSize= 3.59D+01 RnKept= 2.07D+01
         NSMCal=                 5460 NSMKep=                4145
 PrmmSu-InSpLW:  IPartL=    0 NPrtUS=    1 NPrtUL=    1 DoSpLW=F IThBeg=    0 IThEnd=    0 NThAct=    1.
 PrSmSu:  IncTry=   512 NBBP=           4145 NTPThr=   100 NPartT=    1 Incr=          41 LDynOK=F GPUOK=F.
 PrsmSu:  NPrtUS=   1 ThrOK=F IAlg=2 LenDen=           0 ISkipM=0 DoSpLW=F IThBeg=    0 IThEnd=    0.
 Prism:   IPart=     0 DynPar=F LinDyn=F Incr=          41.
 PRISM was handed  4294366791 working-precision words and  4145 shell-pairs
 IPart=  0 NShTot=        4145 NBatch=          69 AvBLen=        60.1
 PrsmSu-ThDecC:  IPartSL=    0    0 NPrtUSL=    1    1 IThBeg=    0 IThEnd=    0 CPU=   -1 GPU=   -1 NThAct=    1.
 PrSmSu:  NxtVal=             42.
 Electronic moments (au):
       -130.00000000         -0.00018734         -0.24471813          0.00016602
      -5081.70781692       -947.99759686       -346.22279080          0.00209540
         -3.78531874          0.00092897          0.52903759        -85.54869825
         -0.00510513         -0.38697324      -2660.62768670          0.38053307
          0.15397288       -350.45848326         -0.12978753      -2463.55846584
    -318394.24684636     -14456.68206950      -3227.68529418          3.00493892
         20.32591084         -1.23410600         -0.58639413      -3128.11413264
         -0.04012592     -36652.56729487     -17902.13607826      -3765.24174061
          0.47880368      -3297.72264256         -0.18625073
 Electronic spatial extent (au):  <R**2>=           6375.9282
 DipInt: DoE/N= F T RetVal/Mat= T F Init=T NMatP=  1 IDeriv=0 Min/MaxMlt=  0  4
 Nuclear    moments (au):
        130.00000000         -0.00000000         -0.00000000          0.00000000
       5017.75915744        873.23128285        270.14179543          0.00000000
          0.00000439          0.00004093         -0.55998252         80.03071925
          0.00304458          0.38993315       2679.59786948         -0.37797758
         -0.15662581        368.75696231          0.13592745       2530.62795248
     302756.21001589      11280.63625826       2000.79385604         -2.89268830
       -894.63284340          1.29950937          0.60410056       3157.12181473
          0.04337117      33411.40447362      15199.38010289       3071.09627882
         -0.42823974       3302.29409643          0.17798620
 Total      moments (au):
         -0.00000000         -0.00018734         -0.24471813          0.00016602
        -63.94865948        -74.76631401        -76.08099537          0.00209540
         -3.78531435          0.00096990         -0.03094493         -5.51797900
         -0.00206055          0.00295990         18.97018278          0.00255549
         -0.00265294         18.29847905          0.00613992         67.06948665
     -15638.03683047      -3176.04581124      -1226.89143815          0.11225063
       -874.30693256          0.06540337          0.01770643         29.00768209
          0.00324525      -3241.16282125      -2702.75597536       -694.14546179
          0.05056394          4.57145387         -0.00826453
 Traceless Quadrup. (au):
          7.64999680         -3.16765772         -4.48233908          0.00209540
         -3.78531435          0.00096990
 Charge=             -0.0000 electrons
 Dipole moment (field-independent basis, Debye):
    X=             -0.0005    Y=             -0.6220    Z=              0.0004  Tot=              0.6220
 Quadrupole moment (field-independent basis, Debye-Ang):
   XX=            -86.0131   YY=           -100.5633   ZZ=           -102.3315
   XY=              0.0028   XZ=             -5.0914   YZ=              0.0013
 Traceless Quadrupole moment (field-independent basis, Debye-Ang):
   XX=             10.2895   YY=             -4.2606   ZZ=             -6.0289
   XY=              0.0028   XZ=             -5.0914   YZ=              0.0013
 Octapole moment (field-independent basis, Debye-Ang**2):
  XXX=             -0.0220  YYY=             -3.9275  ZZZ=             -0.0015  XYY=              0.0021
  XXY=             13.5022  XXZ=              0.0018  XZZ=             -0.0019  YZZ=             13.0242
  YYZ=              0.0044  XYZ=             47.7375
 Hexadecapole moment (field-independent basis, Debye-Ang**3):
 XXXX=          -5890.0345 YYYY=          -1196.2511 ZZZZ=           -462.1061 XXXY=              0.0423
 XXXZ=           -329.3059 YYYX=              0.0246 YYYZ=              0.0067 ZZZX=             10.9257
 ZZZY=              0.0012 XXYY=          -1220.7773 XXZZ=          -1017.9875 YYZZ=           -261.4485
 XXYZ=              0.0190 YYXZ=              1.7218 ZZXY=             -0.0031
 N-N= 1.241278958544D+03 E-N=-4.348955890532D+03  KE= 7.961609115710D+02
 Entering OneElI...
 OneElI was handed  4294776054 working-precision words.
 Calculate electrostatic properties
    NBasis =   302  MinDer = 0  MaxDer = 0
    NGrid  =    34  NMatD  =   1
 Requested accuracy = 0.1000D-12
 PrtBox:  NBox=     1 Levels=  1 BoxLen=   29.89 SMaxX=       20.11
          Shift=           10.055497            5.022873            4.163176
 Box      1 Number                   0 centers from      1 to    104:
 ShPair: Thresh= 1.00D-13 NBox=     1 BxSize= 2.99D+01 RnKept= 1.72D+01
         NSMCal=                 5460 NSMKep=                3669
 PrmmSu-InSpLW:  IPartL=    0 NPrtUS=    8 NPrtUL=    1 DoSpLW=F IThBeg=    0 IThEnd=    7 NThAct=    8.
 PrSmSu:  IncTry=   512 NBBP=         124746 NTPThr=   100 NPartT=    8 Incr=         155 LDynOK=F GPUOK=F.
 PrsmSu:  NPrtUS=   8 ThrOK=T IAlg=2 LenDen=           0 ISkipM=0 DoSpLW=F IThBeg=    0 IThEnd=    7.
 Prism:   IPart=     0 DynPar=F LinDyn=F Incr=         155.
 PRISM was handed   536708876 working-precision words and  3669 shell-pairs
 PRISM was handed   536708876 working-precision words and  3669 shell-pairs
 PRISM was handed   536708876 working-precision words and  3669 shell-pairs
 PRISM was handed   536708876 working-precision words and  3669 shell-pairs
 PRISM was handed   536708876 working-precision words and  3669 shell-pairs
 PRISM was handed   536708876 working-precision words and  3669 shell-pairs
 PRISM was handed   536708876 working-precision words and  3669 shell-pairs
 PRISM was handed   536708876 working-precision words and  3669 shell-pairs
 IPart=  0 NShTot=       16184 NBatch=         476 AvBLen=        34.0
 PrsmSu-ThDecC:  IPartSL=    0    0 NPrtUSL=    8    1 IThBeg=    0 IThEnd=    7 CPU=   -1 GPU=   -1 NThAct=    8.
 IPart=  4 NShTot=       15334 NBatch=         451 AvBLen=        34.0
 PrsmSu-ThDecC:  IPartSL=    4    0 NPrtUSL=    8    1 IThBeg=    0 IThEnd=    7 CPU=   -1 GPU=   -1 NThAct=    7.
 IPart=  6 NShTot=       15062 NBatch=         443 AvBLen=        34.0
 PrsmSu-ThDecC:  IPartSL=    6    0 NPrtUSL=    8    1 IThBeg=    0 IThEnd=    7 CPU=   -1 GPU=   -1 NThAct=    6.
 IPart=  2 NShTot=       15844 NBatch=         466 AvBLen=        34.0
 PrsmSu-ThDecC:  IPartSL=    2    0 NPrtUSL=    8    1 IThBeg=    0 IThEnd=    7 CPU=   -1 GPU=   -1 NThAct=    5.
 IPart=  7 NShTot=       15028 NBatch=         442 AvBLen=        34.0
 IPart=  5 NShTot=       15334 NBatch=         451 AvBLen=        34.0
 PrsmSu-ThDecC:  IPartSL=    7    0 NPrtUSL=    8    1 IThBeg=    0 IThEnd=    7 CPU=   -1 GPU=   -1 NThAct=    4.
 PrsmSu-ThDecC:  IPartSL=    5    0 NPrtUSL=    8    1 IThBeg=    0 IThEnd=    7 CPU=   -1 GPU=   -1 NThAct=    3.
 IPart=  1 NShTot=       16184 NBatch=         476 AvBLen=        34.0
 PrsmSu-ThDecC:  IPartSL=    1    0 NPrtUSL=    8    1 IThBeg=    0 IThEnd=    7 CPU=   -1 GPU=   -1 NThAct=    2.
 IPart=  3 NShTot=       15776 NBatch=         464 AvBLen=        34.0
 PrsmSu-ThDecC:  IPartSL=    3    0 NPrtUSL=    8    1 IThBeg=    0 IThEnd=    7 CPU=   -1 GPU=   -1 NThAct=    1.
 PrSmSu:  NxtVal=           1241.
 --------------------------------------------------------
       Center         ----      EFG at Nuclei      ----
                      3XX-RR        3YY-RR        3ZZ-RR
 --------------------------------------------------------
     1   Atom        0.151945      0.107069     -0.259013
     2   Atom        0.084570      0.124647     -0.209216
     3   Atom        0.181549     -0.124175     -0.057374
     4   Atom        0.004133      0.251213     -0.255347
     5   Atom        0.169949      0.097287     -0.267236
     6   Atom        0.142721      0.040005     -0.182726
     7   Atom        0.084574      0.124632     -0.209206
     8   Atom        0.151948      0.107051     -0.258999
     9   Atom        0.169940      0.097266     -0.267206
    10   Atom        0.142715      0.039998     -0.182713
    11   Atom        0.181570     -0.124160     -0.057410
    12   Atom        0.004114      0.251205     -0.255319
    13   Atom       -0.388456     -0.325321      0.713777
    14   Atom        0.884827     -0.132765     -0.752062
    15   Atom        0.130716      0.197651     -0.328367
    16   Atom       -0.388392     -0.325622      0.714014
    17   Atom        0.058446     -0.173021      0.114576
    18   Atom        0.023480     -0.166670      0.143189
    19   Atom        0.058447     -0.172998      0.114551
    20   Atom        0.023481     -0.166657      0.143176
    21   Atom        0.045948     -0.165146      0.119198
    22   Atom        0.096556     -0.293620      0.197064
    23   Atom        0.101526     -0.066428     -0.035098
    24   Atom        0.033050     -0.170009      0.136958
    25   Atom       -0.112009      0.151514     -0.039506
    26   Atom       -0.001989     -0.100068      0.102057
    27   Atom        0.096581     -0.293584      0.197003
    28   Atom        0.101527     -0.066587     -0.034940
    29   Atom        0.885322     -0.132772     -0.752550
    30   Atom        0.130852      0.197593     -0.328445
    31   Atom        0.045948     -0.165173      0.119225
    32   Atom        0.033001     -0.169957      0.136956
    33   Atom       -0.112165      0.151495     -0.039330
    34   Atom       -0.001873     -0.100071      0.101944
 --------------------------------------------------------
                        XY            XZ            YZ
 --------------------------------------------------------
     1   Atom        0.049481     -0.053398      0.119229
     2   Atom        0.008380     -0.044205      0.113653
     3   Atom       -0.200874     -0.082290      0.031425
     4   Atom        0.042197     -0.051391      0.163619
     5   Atom       -0.006402     -0.063269      0.136832
     6   Atom        0.021941     -0.040671      0.077829
     7   Atom       -0.008385     -0.044207     -0.113688
     8   Atom       -0.049481     -0.053388     -0.119264
     9   Atom        0.006397     -0.063274     -0.136860
    10   Atom       -0.021953     -0.040691     -0.077830
    11   Atom        0.200863     -0.082292     -0.031406
    12   Atom       -0.042193     -0.051382     -0.163630
    13   Atom       -0.134806      0.527100     -0.382956
    14   Atom        1.364422     -0.994085      0.453344
    15   Atom        0.032101     -0.189866      0.088231
    16   Atom        0.134639      0.527204      0.382533
    17   Atom        0.163357      0.063282     -0.130791
    18   Atom       -0.194049     -0.043858     -0.085281
    19   Atom       -0.163351      0.063297      0.130816
    20   Atom        0.194045     -0.043873      0.085306
    21   Atom       -0.167206      0.072360      0.129982
    22   Atom       -0.188255      0.062027      0.082297
    23   Atom        0.119511      0.157382     -0.267727
    24   Atom        0.200310     -0.009585      0.007891
    25   Atom       -0.019015      0.203706      0.021748
    26   Atom       -0.192944     -0.074394     -0.081251
    27   Atom        0.188209      0.062090     -0.082477
    28   Atom       -0.119556      0.157347      0.267712
    29   Atom       -1.364655     -0.993070     -0.453972
    30   Atom       -0.032105     -0.189689     -0.088387
    31   Atom        0.167215      0.072343     -0.129951
    32   Atom       -0.200339     -0.009560     -0.007865
    33   Atom        0.019130      0.203667     -0.021833
    34   Atom        0.192874     -0.074489      0.081406
 --------------------------------------------------------


 ---------------------------------------------------------------------------------
              Nuclear Quadrupole Coupling Constant in Principal Axis System
 ---------------------------------------------------------------------------------

       Atom             a.u.   MegaHertz   Gauss  10(-4) cm-1        Axes

              Baa    -0.6018     2.890     1.031     0.964  0.9126 -0.1031 -0.3957
    13 N(14)  Bbb    -0.4436     2.130     0.760     0.711  0.2042  0.9533  0.2225
              Bcc     1.0453    -5.020    -1.791    -1.675  0.3543 -0.2838  0.8910
 
              Baa    -0.6017     2.890     1.031     0.964  0.9126  0.1031 -0.3956
    16 N(14)  Bbb    -0.4436     2.130     0.760     0.711 -0.2041  0.9534 -0.2221
              Bcc     1.0453    -5.020    -1.791    -1.675  0.3543  0.2835  0.8911
 

 ---------------------------------------------------------------------------------

 No NMR shielding tensors so no spin-rotation constants.
 Leave Link  601 at Fri Nov 11 10:23:56 2022, MaxMem=  4294967296 cpu:               2.0 elap:               0.3
 FitSet:  NAtFit=    34 NAtPot=    34 NAtFrz=     0 MDM=    38 TotChg=   0.00000
 Merz-Kollman atomic radii used.
 Atom Element Radius
    1     6    1.50
    2     6    1.50
    3     6    1.50
    4     6    1.50
    5     6    1.50
    6     6    1.50
    7     6    1.50
    8     6    1.50
    9     6    1.50
   10     6    1.50
   11     6    1.50
   12     6    1.50
   13     7    1.50
   14     8    1.40
   15     6    1.50
   16     7    1.50
   17     1    1.20
   18     1    1.20
   19     1    1.20
   20     1    1.20
   21     1    1.20
   22     1    1.20
   23     1    1.20
   24     1    1.20
   25     1    1.20
   26     1    1.20
   27     1    1.20
   28     1    1.20
   29     8    1.40
   30     6    1.50
   31     1    1.20
   32     1    1.20
   33     1    1.20
   34     1    1.20
 Generate VDW surfaces: Layer= 4 Dens= 6 Start= 1.400 Inc= 0.200

 **********************************************************************

            Electrostatic Properties Using The SCF Density.

 **********************************************************************

       Atomic Center    1 is at   1.506896  0.544462  0.141028
       Atomic Center    2 is at   0.734944 -0.607233 -0.099906
       Atomic Center    3 is at   2.883230  0.547311 -0.050103
       Atomic Center    4 is at   3.563833 -0.606562 -0.492429
       Atomic Center    5 is at   1.417496 -1.754572 -0.542023
       Atomic Center    6 is at   2.797022 -1.756838 -0.735490
       Atomic Center    7 is at  -0.734879 -0.607224  0.099914
       Atomic Center    8 is at  -1.506829  0.544457 -0.141106
       Atomic Center    9 is at  -1.417430 -1.754524  0.542122
       Atomic Center   10 is at  -2.796956 -1.756765  0.735613
       Atomic Center   11 is at  -2.883160  0.547326  0.050025
       Atomic Center   12 is at  -3.563761 -0.606509  0.492462
       Atomic Center   13 is at   4.952746 -0.583742 -0.625381
       Atomic Center   14 is at  -3.617650  1.706691 -0.155168
       Atomic Center   15 is at  -4.088404  1.869069 -1.500707
       Atomic Center   16 is at  -4.952681 -0.583649  0.625434
       Atomic Center   17 is at   1.041489  1.459786  0.495660
       Atomic Center   18 is at   0.857670 -2.657214 -0.769856
       Atomic Center   19 is at  -1.041425  1.459750 -0.495823
       Atomic Center   20 is at  -0.857605 -2.657148  0.770027
       Atomic Center   21 is at  -3.291328 -2.657883  1.091165
       Atomic Center   22 is at   5.316442  0.347677 -0.796778
       Atomic Center   23 is at   5.321204 -1.252725 -1.292156
       Atomic Center   24 is at  -4.657835  2.801001 -1.520030
       Atomic Center   25 is at  -3.248900  1.938821 -2.203058
       Atomic Center   26 is at  -4.738620  1.036762 -1.795776
       Atomic Center   27 is at  -5.316329  0.347728  0.797170
       Atomic Center   28 is at  -5.321140 -1.252832  1.292010
       Atomic Center   29 is at   3.617756  1.706672  0.155005
       Atomic Center   30 is at   4.087988  1.869448  1.500676
       Atomic Center   31 is at   3.291400 -2.657990 -1.090945
       Atomic Center   32 is at   4.657544  2.801305  1.519909
       Atomic Center   33 is at   3.248218  1.939556  2.202673
       Atomic Center   34 is at   4.737968  1.037148  1.796293
      ESP Fit Center   35 is at   1.506896  0.544462  2.241028
      ESP Fit Center   36 is at   1.916586  0.544462  2.200677
      ESP Fit Center   37 is at   1.711741  0.899264  2.200677
      ESP Fit Center   38 is at   1.302051  0.899264  2.200677
      ESP Fit Center   39 is at   1.097206  0.544462  2.200677
      ESP Fit Center   40 is at   1.302051  0.189660  2.200677
      ESP Fit Center   41 is at   1.711741  0.189660  2.200677
      ESP Fit Center   42 is at   2.310531  0.544462  2.081175
      ESP Fit Center   43 is at   0.810928  0.946280  2.081175
      ESP Fit Center   44 is at   0.703261  0.544462  2.081175
      ESP Fit Center   45 is at   0.810928  0.142644  2.081175
      ESP Fit Center   46 is at   1.105078 -0.151506  2.081175
      ESP Fit Center   47 is at   1.506896 -0.259173  2.081175
      ESP Fit Center   48 is at   1.908714 -0.151506  2.081175
      ESP Fit Center   49 is at   2.202865  0.142644  2.081175
      ESP Fit Center   50 is at   0.360064  0.758842  1.887114
      ESP Fit Center   51 is at   0.360064  0.330082  1.887114
      ESP Fit Center   52 is at   1.614545 -0.617258  1.887114
      ESP Fit Center   53 is at   2.026938 -0.499923  1.887114
      ESP Fit Center   54 is at   2.369096 -0.241537  1.887114
      ESP Fit Center   55 is at   2.123756 -0.806272  1.625952
      ESP Fit Center   56 is at   1.717363  2.277817 -1.025670
      ESP Fit Center   57 is at   1.296429  2.277817 -1.025670
      ESP Fit Center   58 is at   0.887725  2.177081 -1.025670
      ESP Fit Center   59 is at   0.515006  1.981463 -1.025670
      ESP Fit Center   60 is at   1.718223  2.014272 -1.343896
      ESP Fit Center   61 is at   1.295569  2.014272 -1.343896
      ESP Fit Center   62 is at   0.890036  1.895197 -1.343896
      ESP Fit Center   63 is at   0.534477  1.666693 -1.343896
      ESP Fit Center   64 is at   1.614545  1.706183 -1.605058
      ESP Fit Center   65 is at   1.187614  1.666622 -1.605058
      ESP Fit Center   66 is at   0.803804  1.475507 -1.605058
      ESP Fit Center   67 is at   0.514950  1.158649 -1.605058
      ESP Fit Center   68 is at   1.908714  1.240431 -1.799119
      ESP Fit Center   69 is at   1.506896  1.348097 -1.799119
      ESP Fit Center   70 is at   1.105078  1.240431 -1.799119
      ESP Fit Center   71 is at   0.810928  0.946280 -1.799119
      ESP Fit Center   72 is at   1.916586  0.544462 -1.918621
      ESP Fit Center   73 is at   1.711741  0.899264 -1.918621
      ESP Fit Center   74 is at   1.302051  0.899264 -1.918621
      ESP Fit Center   75 is at   1.097206  0.544462 -1.918621
      ESP Fit Center   76 is at   1.711741  0.189660 -1.918621
      ESP Fit Center   77 is at   1.506896  0.544462 -1.958972
      ESP Fit Center   78 is at   0.734944 -0.607233  2.000094
      ESP Fit Center   79 is at   1.144634 -0.607233  1.959743
      ESP Fit Center   80 is at   0.530099 -0.252431  1.959743
      ESP Fit Center   81 is at   0.325254 -0.607233  1.959743
      ESP Fit Center   82 is at   0.530099 -0.962035  1.959743
      ESP Fit Center   83 is at   0.939789 -0.962035  1.959743
      ESP Fit Center   84 is at   0.333126  0.088736  1.840241
      ESP Fit Center   85 is at   0.333126 -1.303201  1.840241
      ESP Fit Center   86 is at   0.734944 -1.410868  1.840241
      ESP Fit Center   87 is at   1.136762 -1.303201  1.840241
      ESP Fit Center   88 is at   1.430913 -1.009050  1.840241
      ESP Fit Center   89 is at   0.415662 -1.729392  1.646180
      ESP Fit Center   90 is at   0.842593 -1.768953  1.646180
      ESP Fit Center   91 is at   1.254986 -1.651618  1.646180
      ESP Fit Center   92 is at   1.597144 -1.393232  1.646180
      ESP Fit Center   93 is at   1.822857 -1.028693  1.646180
      ESP Fit Center   94 is at   2.159718 -1.025584  1.385018
      ESP Fit Center   95 is at   0.118084  0.743502 -1.584830
      ESP Fit Center   96 is at   0.415662  0.514927 -1.845992
      ESP Fit Center   97 is at   0.031852  0.323812 -1.845992
      ESP Fit Center   98 is at   1.430913 -0.205415 -2.040053
      ESP Fit Center   99 is at   1.136762  0.088736 -2.040053
      ESP Fit Center  100 is at   0.734944  0.196402 -2.040053
      ESP Fit Center  101 is at   0.333126  0.088736 -2.040053
      ESP Fit Center  102 is at   0.038976 -0.205415 -2.040053
      ESP Fit Center  103 is at  -0.068691 -0.607233 -2.040053
      ESP Fit Center  104 is at   0.038976 -1.009050 -2.040053
      ESP Fit Center  105 is at   0.939789 -0.252431 -2.159555
      ESP Fit Center  106 is at   0.530099 -0.252431 -2.159555
      ESP Fit Center  107 is at   0.325254 -0.607233 -2.159555
      ESP Fit Center  108 is at   0.734944 -0.607233 -2.199906
      ESP Fit Center  109 is at   2.678385  0.192509  2.009546
      ESP Fit Center  110 is at   2.481412 -0.148657  1.890044
      ESP Fit Center  111 is at   2.883230 -0.256324  1.890044
      ESP Fit Center  112 is at   3.285048 -0.148657  1.890044
      ESP Fit Center  113 is at   2.563948 -0.574848  1.695983
      ESP Fit Center  114 is at   2.990879 -0.614409  1.695983
      ESP Fit Center  115 is at   3.403272 -0.497074  1.695983
      ESP Fit Center  116 is at   2.671903 -0.922499  1.434821
      ESP Fit Center  117 is at   2.264059  2.179930 -1.216801
      ESP Fit Center  118 is at   2.671903  2.017121 -1.535027
      ESP Fit Center  119 is at   2.266370  1.898046 -1.535027
      ESP Fit Center  120 is at   3.745430  1.333310 -1.796189
      ESP Fit Center  121 is at   3.403272  1.591696 -1.796189
      ESP Fit Center  122 is at   2.990879  1.709032 -1.796189
      ESP Fit Center  123 is at   2.563948  1.669471 -1.796189
      ESP Fit Center  124 is at   2.180138  1.478356 -1.796189
      ESP Fit Center  125 is at   3.579199  0.949129 -1.990250
      ESP Fit Center  126 is at   3.285048  1.243280 -1.990250
      ESP Fit Center  127 is at   2.883230  1.350946 -1.990250
      ESP Fit Center  128 is at   2.481412  1.243280 -1.990250
      ESP Fit Center  129 is at   2.187262  0.949129 -1.990250
      ESP Fit Center  130 is at   2.079595  0.547311 -1.990250
      ESP Fit Center  131 is at   2.187262  0.145493 -1.990250
      ESP Fit Center  132 is at   3.088075  0.902113 -2.109752
      ESP Fit Center  133 is at   2.678385  0.902113 -2.109752
      ESP Fit Center  134 is at   2.473540  0.547311 -2.109752
      ESP Fit Center  135 is at   2.883230  0.547311 -2.150103
      ESP Fit Center  136 is at   3.563833 -0.606562  1.607571
      ESP Fit Center  137 is at   3.973523 -0.606562  1.567220
      ESP Fit Center  138 is at   3.358988 -0.961364  1.567220
      ESP Fit Center  139 is at   3.768678 -0.961364  1.567220
      ESP Fit Center  140 is at   4.367468 -0.606562  1.447718
      ESP Fit Center  141 is at   2.867865 -1.008380  1.447718
      ESP Fit Center  142 is at   3.162015 -1.302530  1.447718
      ESP Fit Center  143 is at   3.563833 -1.410197  1.447718
      ESP Fit Center  144 is at   3.965651 -1.302530  1.447718
      ESP Fit Center  145 is at   4.259802 -1.008380  1.447718
      ESP Fit Center  146 is at   3.671482 -1.768282  1.253657
      ESP Fit Center  147 is at   4.083875 -1.650947  1.253657
      ESP Fit Center  148 is at   4.426033 -1.392561  1.253657
      ESP Fit Center  149 is at   4.180693 -1.957297  0.992495
      ESP Fit Center  150 is at   3.775160  0.863248 -1.977353
      ESP Fit Center  151 is at   2.139059 -0.188210 -1.977353
      ESP Fit Center  152 is at   3.671482  0.555159 -2.238515
      ESP Fit Center  153 is at   3.244551  0.515598 -2.238515
      ESP Fit Center  154 is at   2.860741  0.324483 -2.238515
      ESP Fit Center  155 is at   2.571887  0.007625 -2.238515
      ESP Fit Center  156 is at   3.965651  0.089407 -2.432576
      ESP Fit Center  157 is at   3.563833  0.197073 -2.432576
      ESP Fit Center  158 is at   3.162015  0.089407 -2.432576
      ESP Fit Center  159 is at   2.867865 -0.204744 -2.432576
      ESP Fit Center  160 is at   3.965651 -1.302530 -2.432576
      ESP Fit Center  161 is at   3.973523 -0.606562 -2.552078
      ESP Fit Center  162 is at   3.768678 -0.251760 -2.552078
      ESP Fit Center  163 is at   3.358988 -0.251760 -2.552078
      ESP Fit Center  164 is at   3.154143 -0.606562 -2.552078
      ESP Fit Center  165 is at   3.768678 -0.961364 -2.552078
      ESP Fit Center  166 is at   3.563833 -0.606562 -2.592429
      ESP Fit Center  167 is at   1.417496 -1.754572  1.557977
      ESP Fit Center  168 is at   1.827186 -1.754572  1.517626
      ESP Fit Center  169 is at   1.212651 -2.109374  1.517626
      ESP Fit Center  170 is at   1.622341 -2.109374  1.517626
      ESP Fit Center  171 is at   2.221131 -1.754572  1.398124
      ESP Fit Center  172 is at   2.113465 -1.352754  1.398124
      ESP Fit Center  173 is at   0.721528 -2.156390  1.398124
      ESP Fit Center  174 is at   1.015678 -2.450540  1.398124
      ESP Fit Center  175 is at   1.417496 -2.558207  1.398124
      ESP Fit Center  176 is at   1.819314 -2.450540  1.398124
      ESP Fit Center  177 is at   2.113465 -2.156390  1.398124
      ESP Fit Center  178 is at   1.098214 -2.876731  1.204063
      ESP Fit Center  179 is at   1.525145 -2.916292  1.204063
      ESP Fit Center  180 is at   1.937538 -2.798957  1.204063
      ESP Fit Center  181 is at   2.279696 -2.540571  1.204063
      ESP Fit Center  182 is at   0.800636 -3.105306  0.942901
      ESP Fit Center  183 is at   1.206169 -3.224382  0.942901
      ESP Fit Center  184 is at   1.628823 -3.224382  0.942901
      ESP Fit Center  185 is at   2.034356 -3.105306  0.942901
      ESP Fit Center  186 is at   1.627963 -3.487927  0.624674
      ESP Fit Center  187 is at   2.036667 -3.387191  0.624674
      ESP Fit Center  188 is at   1.936540 -3.624001  0.261612
      ESP Fit Center  189 is at   2.132823 -3.686012 -0.132333
      ESP Fit Center  190 is at  -0.328590 -1.754572 -1.708721
      ESP Fit Center  191 is at   1.628823 -0.284762 -2.026947
      ESP Fit Center  192 is at  -0.007278 -1.336220 -2.026947
      ESP Fit Center  193 is at  -0.067428 -1.754572 -2.026947
      ESP Fit Center  194 is at   1.525145 -0.592851 -2.288109
      ESP Fit Center  195 is at   1.098214 -0.632412 -2.288109
      ESP Fit Center  196 is at   0.714404 -0.823527 -2.288109
      ESP Fit Center  197 is at   0.425550 -1.140385 -2.288109
      ESP Fit Center  198 is at   0.270664 -1.540192 -2.288109
      ESP Fit Center  199 is at   0.270664 -1.968952 -2.288109
      ESP Fit Center  200 is at   1.819314 -1.058603 -2.482170
      ESP Fit Center  201 is at   1.417496 -0.950937 -2.482170
      ESP Fit Center  202 is at   1.015678 -1.058603 -2.482170
      ESP Fit Center  203 is at   0.721528 -1.352754 -2.482170
      ESP Fit Center  204 is at   0.613861 -1.754572 -2.482170
      ESP Fit Center  205 is at   0.721528 -2.156390 -2.482170
      ESP Fit Center  206 is at   1.015678 -2.450540 -2.482170
      ESP Fit Center  207 is at   1.417496 -2.558207 -2.482170
      ESP Fit Center  208 is at   1.819314 -2.450540 -2.482170
      ESP Fit Center  209 is at   1.827186 -1.754572 -2.601672
      ESP Fit Center  210 is at   1.622341 -1.399770 -2.601672
      ESP Fit Center  211 is at   1.212651 -1.399770 -2.601672
      ESP Fit Center  212 is at   1.007806 -1.754572 -2.601672
      ESP Fit Center  213 is at   1.212651 -2.109374 -2.601672
      ESP Fit Center  214 is at   1.622341 -2.109374 -2.601672
      ESP Fit Center  215 is at   1.417496 -1.754572 -2.642023
      ESP Fit Center  216 is at   2.797022 -1.756838  1.364510
      ESP Fit Center  217 is at   3.206712 -1.756838  1.324159
      ESP Fit Center  218 is at   2.592177 -1.402036  1.324159
      ESP Fit Center  219 is at   2.387332 -1.756838  1.324159
      ESP Fit Center  220 is at   2.592177 -2.111640  1.324159
      ESP Fit Center  221 is at   3.001867 -2.111640  1.324159
      ESP Fit Center  222 is at   2.395204 -2.452806  1.204657
      ESP Fit Center  223 is at   2.797022 -2.560473  1.204657
      ESP Fit Center  224 is at   3.198840 -2.452806  1.204657
      ESP Fit Center  225 is at   3.492991 -2.158656  1.204657
      ESP Fit Center  226 is at   2.477740 -2.878997  1.010596
      ESP Fit Center  227 is at   2.904671 -2.918558  1.010596
      ESP Fit Center  228 is at   3.317064 -2.801223  1.010596
      ESP Fit Center  229 is at   3.659222 -2.542837  1.010596
      ESP Fit Center  230 is at   3.884935 -2.178298  1.010596
      ESP Fit Center  231 is at   2.585695 -3.226648  0.749434
      ESP Fit Center  232 is at   3.008349 -3.226648  0.749434
      ESP Fit Center  233 is at   3.413882 -3.107573  0.749434
      ESP Fit Center  234 is at   3.769441 -2.879069  0.749434
      ESP Fit Center  235 is at   4.046220 -2.559649  0.749434
      ESP Fit Center  236 is at   4.221796 -2.175189  0.749434
      ESP Fit Center  237 is at   2.586555 -3.490193  0.431207
      ESP Fit Center  238 is at   3.007489 -3.490193  0.431207
      ESP Fit Center  239 is at   3.416193 -3.389457  0.431207
      ESP Fit Center  240 is at   3.788912 -3.193839  0.431207
      ESP Fit Center  241 is at   4.103986 -2.914707  0.431207
      ESP Fit Center  242 is at   4.343105 -2.568285  0.431207
      ESP Fit Center  243 is at   2.483141 -3.671426  0.068145
      ESP Fit Center  244 is at   4.557852 -2.571485  0.068145
      ESP Fit Center  245 is at   2.180162 -0.406103 -2.220414
      ESP Fit Center  246 is at   3.963720 -1.756838 -2.481576
      ESP Fit Center  247 is at   3.884935 -1.335378 -2.481576
      ESP Fit Center  248 is at   2.477740 -0.634678 -2.481576
      ESP Fit Center  249 is at   2.093930 -0.825793 -2.481576
      ESP Fit Center  250 is at   2.093930 -2.687883 -2.481576
      ESP Fit Center  251 is at   3.600657 -1.756838 -2.675637
      ESP Fit Center  252 is at   3.492991 -1.355020 -2.675637
      ESP Fit Center  253 is at   3.198840 -1.060869 -2.675637
      ESP Fit Center  254 is at   2.797022 -0.953203 -2.675637
      ESP Fit Center  255 is at   2.395204 -1.060869 -2.675637
      ESP Fit Center  256 is at   2.101054 -1.355020 -2.675637
      ESP Fit Center  257 is at   1.993387 -1.756838 -2.675637
      ESP Fit Center  258 is at   2.101054 -2.158656 -2.675637
      ESP Fit Center  259 is at   2.395204 -2.452806 -2.675637
      ESP Fit Center  260 is at   3.206712 -1.756838 -2.795139
      ESP Fit Center  261 is at   3.001867 -1.402036 -2.795139
      ESP Fit Center  262 is at   2.592177 -1.402036 -2.795139
      ESP Fit Center  263 is at   2.387332 -1.756838 -2.795139
      ESP Fit Center  264 is at   2.592177 -2.111640 -2.795139
      ESP Fit Center  265 is at   3.001867 -2.111640 -2.795139
      ESP Fit Center  266 is at   2.797022 -1.756838 -2.835490
      ESP Fit Center  267 is at  -0.734879 -0.607224  2.199914
      ESP Fit Center  268 is at  -0.325189 -0.607224  2.159563
      ESP Fit Center  269 is at  -0.530034 -0.252422  2.159563
      ESP Fit Center  270 is at  -0.939724 -0.252422  2.159563
      ESP Fit Center  271 is at   0.068756 -0.607224  2.040061
      ESP Fit Center  272 is at  -0.038910 -0.205406  2.040061
      ESP Fit Center  273 is at  -0.333061  0.088745  2.040061
      ESP Fit Center  274 is at  -0.734879  0.196411  2.040061
      ESP Fit Center  275 is at  -1.136697  0.088745  2.040061
      ESP Fit Center  276 is at  -1.430847 -0.205406  2.040061
      ESP Fit Center  277 is at  -0.038910 -1.009041  2.040061
      ESP Fit Center  278 is at   0.127321  0.178775  1.846000
      ESP Fit Center  279 is at  -0.214837  0.437161  1.846000
      ESP Fit Center  280 is at  -0.627230  0.554497  1.846000
      ESP Fit Center  281 is at  -0.118019  0.743511  1.584838
      ESP Fit Center  282 is at  -2.159653 -1.025575 -1.385010
      ESP Fit Center  283 is at  -1.726825 -1.221411 -1.646172
      ESP Fit Center  284 is at  -1.437971 -1.538269 -1.646172
      ESP Fit Center  285 is at  -1.054161 -1.729383 -1.646172
      ESP Fit Center  286 is at  -0.627230 -1.768944 -1.646172
      ESP Fit Center  287 is at  -0.333061  0.088745 -1.840233
      ESP Fit Center  288 is at  -1.430847 -1.009041 -1.840233
      ESP Fit Center  289 is at  -1.136697 -1.303192 -1.840233
      ESP Fit Center  290 is at  -0.734879 -1.410859 -1.840233
      ESP Fit Center  291 is at  -0.333061 -1.303192 -1.840233
      ESP Fit Center  292 is at  -0.325189 -0.607224 -1.959735
      ESP Fit Center  293 is at  -0.530034 -0.252422 -1.959735
      ESP Fit Center  294 is at  -1.144569 -0.607224 -1.959735
      ESP Fit Center  295 is at  -0.939724 -0.962026 -1.959735
      ESP Fit Center  296 is at  -0.530034 -0.962026 -1.959735
      ESP Fit Center  297 is at  -0.734879 -0.607224 -2.000086
      ESP Fit Center  298 is at  -1.506829  0.544457  1.958894
      ESP Fit Center  299 is at  -1.097139  0.544457  1.918543
      ESP Fit Center  300 is at  -1.301984  0.899259  1.918543
      ESP Fit Center  301 is at  -1.711674  0.899259  1.918543
      ESP Fit Center  302 is at  -1.916519  0.544457  1.918543
[...]
 8286 Fit       0.004528
 8287 Fit       0.007306
 8288 Fit       0.009437
 8289 Fit       0.011092
 8290 Fit      -0.005768
 8291 Fit      -0.001135
 8292 Fit       0.002931
 8293 Fit       0.006145
 8294 Fit       0.008522
 8295 Fit       0.010225
 8296 Fit       0.011489
 8297 Fit       0.012618
 8298 Fit      -0.003970
 8299 Fit       0.000956
 8300 Fit       0.004703
 8301 Fit       0.007403
 8302 Fit       0.009263
 8303 Fit       0.010503
 8304 Fit       0.011350
 8305 Fit       0.012063
 8306 Fit      -0.003783
 8307 Fit       0.001510
 8308 Fit       0.005208
 8309 Fit       0.007686
 8310 Fit       0.009256
 8311 Fit       0.010173
 8312 Fit       0.010659
 8313 Fit       0.010943
 8314 Fit       0.002358
 8315 Fit       0.005671
 8316 Fit       0.007747
 8317 Fit       0.008931
 8318 Fit       0.009465
 8319 Fit       0.009542
 8320 Fit       0.009341
 8321 Fit       0.000581
 8322 Fit       0.004373
 8323 Fit       0.006661
 8324 Fit       0.007903
 8325 Fit       0.008377
 8326 Fit       0.008269
 8327 Fit       0.007720
 8328 Fit       0.005055
 8329 Fit       0.006630
 8330 Fit       0.007226
 8331 Fit       0.007067
 8332 Fit       0.006292
 8333 Fit       0.005786
 8334 Fit       0.006143
 8335 Fit       0.005652
 8336 Fit       0.004416
 8337 Fit       0.005096
 8338 Fit       0.004212
 8339 Fit       0.011441
 8340 Fit       0.009376
 8341 Fit       0.009219
 8342 Fit       0.011256
 8343 Fit       0.013010
 8344 Fit       0.013280
 8345 Fit       0.011704
 8346 Fit       0.006709
 8347 Fit       0.011217
 8348 Fit       0.012994
 8349 Fit       0.014131
 8350 Fit       0.014717
 8351 Fit       0.014705
 8352 Fit       0.013893
 8353 Fit       0.012033
 8354 Fit       0.009270
 8355 Fit       0.013023
 8356 Fit       0.014076
 8357 Fit       0.014818
 8358 Fit       0.015347
 8359 Fit       0.015658
 8360 Fit       0.015689
 8361 Fit       0.015321
 8362 Fit       0.014351
 8363 Fit       0.012487
 8364 Fit       0.009580
 8365 Fit       0.014336
 8366 Fit       0.014837
 8367 Fit       0.015283
 8368 Fit       0.015680
 8369 Fit       0.015995
 8370 Fit       0.016184
 8371 Fit       0.016187
 8372 Fit       0.015914
 8373 Fit       0.015173
 8374 Fit       0.013603
 8375 Fit       0.014531
 8376 Fit       0.014718
 8377 Fit       0.014997
 8378 Fit       0.015333
 8379 Fit       0.015678
 8380 Fit       0.015989
 8381 Fit       0.016236
 8382 Fit       0.016393
 8383 Fit       0.016423
 8384 Fit       0.016209
 8385 Fit       0.014171
 8386 Fit       0.014084
 8387 Fit       0.014209
 8388 Fit       0.014470
 8389 Fit       0.014803
 8390 Fit       0.015159
 8391 Fit       0.015510
 8392 Fit       0.015850
 8393 Fit       0.016194
 8394 Fit       0.016573
 8395 Fit       0.012869
 8396 Fit       0.012871
 8397 Fit       0.013085
 8398 Fit       0.013421
 8399 Fit       0.013814
 8400 Fit       0.014233
 8401 Fit       0.014674
 8402 Fit       0.015169
 8403 Fit       0.015797
 8404 Fit       0.010900
 8405 Fit       0.011089
 8406 Fit       0.011433
 8407 Fit       0.011858
 8408 Fit       0.012324
 8409 Fit       0.012822
 8410 Fit       0.013382
 8411 Fit       0.014087
 8412 Fit       0.015121
 8413 Fit       0.008279
 8414 Fit       0.008594
 8415 Fit       0.009037
 8416 Fit       0.009542
 8417 Fit       0.010079
 8418 Fit       0.010652
 8419 Fit       0.011308
 8420 Fit       0.012165
 8421 Fit       0.005495
 8422 Fit       0.006090
 8423 Fit       0.006710
 8424 Fit       0.007343
 8425 Fit       0.008014
 8426 Fit       0.008810
 8427 Fit       0.002916
 8428 Fit       0.003630
 8429 Fit       0.004339
 8430 Fit      -0.008141
 8431 Fit      -0.011927
 8432 Fit      -0.012573
 8433 Fit      -0.012441
 8434 Fit      -0.011346
 8435 Fit      -0.011966
 8436 Fit      -0.013512
 8437 Fit      -0.014579
 8438 Fit      -0.015059
 8439 Fit      -0.014830
 8440 Fit      -0.013729
 8441 Fit      -0.011726
 8442 Fit      -0.013495
 8443 Fit      -0.015038
 8444 Fit      -0.016233
 8445 Fit      -0.016968
 8446 Fit      -0.017134
 8447 Fit      -0.016616
 8448 Fit      -0.015293
 8449 Fit      -0.003289
 8450 Fit      -0.006448
 8451 Fit      -0.008915
 8452 Fit      -0.011009
 8453 Fit      -0.012896
 8454 Fit      -0.014621
 8455 Fit      -0.016149
 8456 Fit      -0.017407
 8457 Fit      -0.018307
 8458 Fit      -0.018757
 8459 Fit      -0.018675
 8460 Fit      -0.017993
 8461 Fit      -0.016679
 8462 Fit      -0.005503
 8463 Fit      -0.009031
 8464 Fit      -0.011729
 8465 Fit      -0.013924
 8466 Fit      -0.015780
 8467 Fit      -0.017345
 8468 Fit      -0.018597
 8469 Fit      -0.019479
 8470 Fit      -0.019922
 8471 Fit      -0.019868
 8472 Fit      -0.019299
 8473 Fit      -0.018273
 8474 Fit      -0.008130
 8475 Fit      -0.011705
 8476 Fit      -0.014406
 8477 Fit      -0.016526
 8478 Fit      -0.018199
 8479 Fit      -0.019459
 8480 Fit      -0.020284
 8481 Fit      -0.020638
 8482 Fit      -0.020513
 8483 Fit      -0.019976
 8484 Fit      -0.019250
 8485 Fit      -0.006108
 8486 Fit      -0.010702
 8487 Fit      -0.014049
 8488 Fit      -0.016542
 8489 Fit      -0.018403
 8490 Fit      -0.019729
 8491 Fit      -0.020546
 8492 Fit      -0.020870
 8493 Fit      -0.020771
 8494 Fit      -0.020439
 8495 Fit      -0.009421
 8496 Fit      -0.013400
 8497 Fit      -0.016297
 8498 Fit      -0.018354
 8499 Fit      -0.019715
 8500 Fit      -0.020466
 8501 Fit      -0.020720
 8502 Fit      -0.020708
 8503 Fit      -0.008399
 8504 Fit      -0.012778
 8505 Fit      -0.016039
 8506 Fit      -0.018235
 8507 Fit      -0.019527
 8508 Fit      -0.020132
 8509 Fit      -0.020428
 8510 Fit      -0.012096
 8511 Fit      -0.015598
 8512 Fit      -0.017890
 8513 Fit      -0.019058
 8514 Fit      -0.012136
 8515 Fit      -0.015237
 8516 Fit      -0.017460
 8517 Fit       0.005088
 8518 Fit       0.005335
 8519 Fit       0.005650
 8520 Fit       0.004602
 8521 Fit       0.005571
 8522 Fit       0.005972
 8523 Fit       0.006043
 8524 Fit       0.005872
 8525 Fit       0.003339
 8526 Fit       0.004030
 8527 Fit       0.004881
 8528 Fit       0.005750
 8529 Fit       0.006170
 8530 Fit       0.006371
 8531 Fit       0.006325
 8532 Fit       0.006085
 8533 Fit       0.005801
 8534 Fit       0.001875
 8535 Fit       0.002484
 8536 Fit       0.003403
 8537 Fit       0.004346
 8538 Fit       0.005142
 8539 Fit       0.005834
 8540 Fit       0.006279
 8541 Fit       0.006580
 8542 Fit       0.006673
 8543 Fit       0.006516
 8544 Fit       0.006157
 8545 Fit       0.005739
 8546 Fit       0.000031
 8547 Fit       0.000486
 8548 Fit       0.005270
 8549 Fit       0.005797
 8550 Fit       0.006252
 8551 Fit       0.006643
 8552 Fit       0.006906
 8553 Fit       0.006961
 8554 Fit       0.006758
 8555 Fit       0.006323
 8556 Fit       0.005769
 8557 Fit       0.005253
 8558 Fit      -0.002114
 8559 Fit      -0.001656
 8560 Fit       0.005627
 8561 Fit       0.006131
 8562 Fit       0.006624
 8563 Fit       0.007044
 8564 Fit       0.005539
 8565 Fit       0.004828
 8566 Fit       0.004313
 8567 Fit      -0.004555
 8568 Fit      -0.003841
 8569 Fit       0.005329
 8570 Fit       0.005891
 8571 Fit       0.006484
 8572 Fit       0.004335
 8573 Fit       0.003616
 8574 Fit      -0.007921
 8575 Fit      -0.007373
 8576 Fit       0.004921
 8577 Fit       0.005565
 8578 Fit       0.002621
 8579 Fit       0.002086
 8580 Fit      -0.012118
 8581 Fit      -0.011757
 8582 Fit      -0.010973
 8583 Fit       0.004446
 8584 Fit       0.005166
 8585 Fit       0.001433
 8586 Fit       0.000800
 8587 Fit       0.003972
 8588 Fit       0.004757
 8589 Fit      -0.000259
 8590 Fit      -0.000863
 8591 Fit      -0.001066
 8592 Fit       0.003603
 8593 Fit       0.004415
 8594 Fit      -0.001981
 8595 Fit      -0.002705
 8596 Fit      -0.002963
 8597 Fit      -0.002676
 8598 Fit       0.003473
 8599 Fit       0.004177
 8600 Fit      -0.004137
 8601 Fit      -0.004998
 8602 Fit      -0.005335
 8603 Fit      -0.004991
 8604 Fit       0.002410
 8605 Fit       0.003754
 8606 Fit       0.004121
 8607 Fit      -0.006876
 8608 Fit      -0.007922
 8609 Fit      -0.008408
 8610 Fit      -0.008101
 8611 Fit       0.002929
 8612 Fit       0.004645
 8613 Fit       0.004307
 8614 Fit      -0.009729
 8615 Fit      -0.011268
 8616 Fit       0.004649
 8617 Fit       0.003269
 8618 Fit       0.002137
 8619 Fit      -0.001760
 8620 Fit      -0.001543
 8621 Fit      -0.001592
 8622 Fit      -0.002023
 8623 Fit      -0.003037
 8624 Fit       0.000678
 8625 Fit       0.000871
 8626 Fit       0.001049
 8627 Fit       0.001137
 8628 Fit       0.001063
 8629 Fit       0.000736
 8630 Fit      -0.000005
 8631 Fit       0.002870
 8632 Fit       0.002887
 8633 Fit       0.003050
 8634 Fit       0.003255
 8635 Fit       0.003440
 8636 Fit       0.003566
 8637 Fit       0.003598
 8638 Fit       0.003480
 8639 Fit       0.004596
 8640 Fit       0.004444
 8641 Fit       0.004556
 8642 Fit       0.004802
 8643 Fit       0.005113
 8644 Fit       0.005464
 8645 Fit       0.005864
 8646 Fit       0.006356
 8647 Fit       0.007030
 8648 Fit       0.005928
 8649 Fit       0.005540
 8650 Fit       0.005552
 8651 Fit       0.005782
 8652 Fit       0.006140
 8653 Fit       0.006588
 8654 Fit       0.007132
 8655 Fit       0.007826
 8656 Fit       0.008789
 8657 Fit       0.010253
 8658 Fit       0.006042
 8659 Fit       0.006136
 8660 Fit       0.006453
 8661 Fit       0.006912
 8662 Fit       0.007485
 8663 Fit       0.008191
 8664 Fit       0.009108
 8665 Fit       0.010402
 8666 Fit       0.012391
 8667 Fit       0.005891
 8668 Fit       0.006121
 8669 Fit       0.006550
 8670 Fit       0.007115
 8671 Fit       0.007794
 8672 Fit       0.008613
 8673 Fit       0.009656
 8674 Fit       0.011094
 8675 Fit       0.013258
 8676 Fit       0.004834
 8677 Fit       0.005452
 8678 Fit       0.006111
 8679 Fit       0.006832
 8680 Fit       0.007629
 8681 Fit       0.008537
 8682 Fit       0.009638
 8683 Fit       0.011088
 8684 Fit       0.013160
 8685 Fit       0.016337
 8686 Fit       0.003100
 8687 Fit       0.004398
 8688 Fit       0.005483
 8689 Fit       0.006502
 8690 Fit       0.007538
 8691 Fit       0.008676
 8692 Fit       0.010043
 8693 Fit       0.011847
 8694 Fit       0.014411
 8695 Fit       0.002907
 8696 Fit       0.004497
 8697 Fit       0.005855
 8698 Fit       0.007139
 8699 Fit       0.008484
 8700 Fit       0.010048
 8701 Fit       0.012020
 8702 Fit       0.014542
 8703 Fit       0.012231
 8704 Fit       0.002567
 8705 Fit       0.004461
 8706 Fit       0.006080
 8707 Fit       0.007619
 8708 Fit       0.009224
 8709 Fit       0.010905
 8710 Fit       0.007840
 8711 Fit       0.001751
 8712 Fit       0.004099
 8713 Fit       0.005959
 8714 Fit       0.007386
 8715 Fit       0.004053
 8716 Fit       0.001107
 8717 Fit       0.003688
 8718 Fit       0.007090
 8719 Fit       0.006884
 8720 Fit       0.006628
 8721 Fit       0.006317
 8722 Fit       0.006817
 8723 Fit       0.006724
 8724 Fit       0.006560
 8725 Fit       0.006290
 8726 Fit       0.005923
 8727 Fit       0.005510
 8728 Fit       0.005152
 8729 Fit       0.006477
 8730 Fit       0.006506
 8731 Fit       0.006511
 8732 Fit       0.006429
 8733 Fit       0.006227
 8734 Fit       0.005898
 8735 Fit       0.005455
 8736 Fit       0.004938
 8737 Fit       0.004419
 8738 Fit       0.006034
 8739 Fit       0.006163
 8740 Fit       0.006242
 8741 Fit       0.006227
 8742 Fit       0.006094
 8743 Fit       0.005830
 8744 Fit       0.005436
 8745 Fit       0.004924
 8746 Fit       0.004325
 8747 Fit       0.003688
 8748 Fit       0.003095
 8749 Fit       0.005597
 8750 Fit       0.005796
 8751 Fit       0.005915
 8752 Fit       0.005926
 8753 Fit       0.005809
 8754 Fit       0.005554
 8755 Fit       0.005157
 8756 Fit       0.004622
 8757 Fit       0.003968
 8758 Fit       0.003224
 8759 Fit       0.002444
 8760 Fit       0.001706
 8761 Fit       0.005181
 8762 Fit       0.005399
 8763 Fit       0.005519
 8764 Fit       0.005525
 8765 Fit       0.005406
 8766 Fit       0.005151
 8767 Fit       0.004753
 8768 Fit       0.004210
 8769 Fit       0.003531
 8770 Fit       0.002731
 8771 Fit       0.001840
 8772 Fit       0.000906
 8773 Fit       0.000006
 8774 Fit       0.004797
 8775 Fit       0.004967
 8776 Fit       0.005036
 8777 Fit       0.004995
 8778 Fit       0.004832
 8779 Fit       0.004536
 8780 Fit       0.004096
 8781 Fit       0.003506
 8782 Fit       0.002765
 8783 Fit       0.001882
 8784 Fit       0.000871
 8785 Fit      -0.000236
 8786 Fit      -0.001391
 8787 Fit       0.004435
 8788 Fit       0.004472
 8789 Fit       0.004422
 8790 Fit       0.004271
 8791 Fit       0.004001
 8792 Fit       0.003588
 8793 Fit       0.003018
 8794 Fit       0.002276
 8795 Fit       0.001356
 8796 Fit       0.000257
 8797 Fit      -0.001014
 8798 Fit      -0.002441
 8799 Fit      -0.003991
 8800 Fit       0.004046
 8801 Fit       0.003832
 8802 Fit       0.003585
 8803 Fit       0.003262
 8804 Fit       0.002821
 8805 Fit       0.002223
 8806 Fit       0.001438
 8807 Fit       0.000442
 8808 Fit      -0.000787
 8809 Fit      -0.002266
 8810 Fit      -0.004013
 8811 Fit      -0.006048
 8812 Fit       0.003486
 8813 Fit       0.002911
 8814 Fit       0.002403
 8815 Fit       0.001861
 8816 Fit       0.001203
 8817 Fit       0.000367
 8818 Fit      -0.000699
 8819 Fit      -0.002042
 8820 Fit      -0.003712
 8821 Fit      -0.005769
 8822 Fit      -0.008307
 8823 Fit       0.001415
 8824 Fit       0.000574
 8825 Fit      -0.000292
 8826 Fit      -0.001330
 8827 Fit      -0.002653
 8828 Fit      -0.004362
 8829 Fit      -0.006576
 8830 Fit      -0.009460
 8831 Fit      -0.001047
 8832 Fit      -0.002215
 8833 Fit      -0.003499
 8834 Fit      -0.005128
 8835 Fit      -0.007307
 8836 Fit      -0.010278
 8837 Fit       0.003715
 8838 Fit       0.004501
 8839 Fit       0.004534
 8840 Fit       0.003797
 8841 Fit       0.002965
 8842 Fit       0.002711
 8843 Fit       0.003503
 8844 Fit       0.005207
 8845 Fit       0.004511
 8846 Fit       0.003748
 8847 Fit       0.002966
 8848 Fit       0.002191
 8849 Fit       0.001597
 8850 Fit       0.001477
 8851 Fit       0.002028
 8852 Fit       0.003166
 8853 Fit       0.005774
 8854 Fit       0.005000
 8855 Fit       0.004253
 8856 Fit       0.003565
 8857 Fit       0.002883
 8858 Fit       0.002144
 8859 Fit       0.001347
 8860 Fit       0.000592
 8861 Fit       0.000066
 8862 Fit      -0.000042
 8863 Fit       0.000376
 8864 Fit       0.001329
 8865 Fit       0.005184
 8866 Fit       0.004357
 8867 Fit       0.003662
 8868 Fit       0.003046
 8869 Fit       0.002425
 8870 Fit       0.001716
 8871 Fit       0.000876
 8872 Fit      -0.000058
 8873 Fit      -0.000959
 8874 Fit      -0.001638
 8875 Fit      -0.001928
 8876 Fit      -0.001733
 8877 Fit      -0.001022
 8878 Fit       0.004103
 8879 Fit       0.003378
 8880 Fit       0.002795
 8881 Fit       0.002258
 8882 Fit       0.001665
 8883 Fit       0.000921
 8884 Fit      -0.000031
 8885 Fit      -0.001169
 8886 Fit      -0.002364
 8887 Fit      -0.003404
 8888 Fit      -0.004080
 8889 Fit      -0.004255
 8890 Fit      -0.003890
 8891 Fit      -0.002993
 8892 Fit       0.003677
 8893 Fit       0.002915
 8894 Fit       0.002359
 8895 Fit       0.001913
 8896 Fit       0.001473
 8897 Fit       0.000929
 8898 Fit       0.000169
 8899 Fit      -0.000894
 8900 Fit      -0.002267
 8901 Fit      -0.003829
 8902 Fit      -0.005334
 8903 Fit      -0.006502
 8904 Fit      -0.007125
 8905 Fit      -0.007127
 8906 Fit      -0.006540
 8907 Fit       0.001895
 8908 Fit       0.001457
 8909 Fit       0.001150
 8910 Fit       0.000858
 8911 Fit       0.000443
 8912 Fit      -0.000264
 8913 Fit      -0.001439
 8914 Fit      -0.003174
 8915 Fit      -0.005351
 8916 Fit      -0.010421
 8917 Fit       0.000705
 8918 Fit       0.000463
 8919 Fit       0.000400
 8920 Fit       0.000402
 8921 Fit       0.000311
 8922 Fit      -0.000696
 8923 Fit      -0.000524
 8924 Fit      -0.000084
 8925 Fit      -0.001443
 8926 Fit       0.003128
 8927 Fit       0.004299
 8928 Fit       0.001186
 8929 Fit       0.001889
 8930 Fit       0.003008
 8931 Fit       0.004082
 8932 Fit      -0.000776
 8933 Fit      -0.000791
 8934 Fit      -0.000283
 8935 Fit       0.000585
 8936 Fit       0.001678
 8937 Fit       0.002870
 8938 Fit       0.003756
 8939 Fit       0.004942
 8940 Fit      -0.003110
 8941 Fit      -0.002758
 8942 Fit      -0.002066
 8943 Fit      -0.001106
 8944 Fit       0.000047
 8945 Fit       0.001296
 8946 Fit       0.002548
 8947 Fit       0.003322
 8948 Fit       0.004521
 8949 Fit      -0.005831
 8950 Fit      -0.005678
 8951 Fit      -0.005193
 8952 Fit      -0.004436
 8953 Fit      -0.003414
 8954 Fit      -0.002157
 8955 Fit      -0.000752
 8956 Fit       0.000684
 8957 Fit       0.002054
 8958 Fit       0.002786
 8959 Fit       0.004007
 8960 Fit      -0.009050
 8961 Fit      -0.008727
 8962 Fit      -0.008203
 8963 Fit      -0.007458
 8964 Fit      -0.006418
 8965 Fit      -0.005059
 8966 Fit      -0.003454
 8967 Fit      -0.001745
 8968 Fit      -0.000081
 8969 Fit       0.001438
 8970 Fit       0.002168
 8971 Fit       0.003502
 8972 Fit      -0.013044
 8973 Fit      -0.012719
 8974 Fit      -0.012317
 8975 Fit      -0.011803
 8976 Fit      -0.010971
 8977 Fit      -0.009637
 8978 Fit      -0.007790
 8979 Fit      -0.005609
 8980 Fit      -0.003351
 8981 Fit      -0.001236
 8982 Fit       0.000611
 8983 Fit       0.001511
 8984 Fit       0.002973
 8985 Fit      -0.014226
 8986 Fit      -0.011516
 8987 Fit      -0.008407
 8988 Fit      -0.005331
 8989 Fit      -0.002588
 8990 Fit      -0.000309
 8991 Fit       0.000901
 8992 Fit       0.002543
 8993 Fit      -0.008040
 8994 Fit      -0.004267
 8995 Fit      -0.001312
 8996 Fit       0.000513
 8997 Fit       0.002414
 8998 Fit      -0.002355
 8999 Fit       0.000706
 -----------------------------------------------------------------
 Leave Link  602 at Fri Nov 11 10:23:57 2022, MaxMem=  4294967296 cpu:               4.9 elap:               0.7

 Test job not archived.
 1\1\GINC-NODE10\SP\RHF\6-31G(d)\C14H16N2O2\GOST\11-Nov-2022\0\\#HF 6-3
 1g(d) scf=nosymm test pop=MK iop(6/33=2) iop(6/42=6) geom=distance\\co
 nformer 3 ESP\\0,1\C,0,-1.506896,0.544462,-0.141028\C,0,-0.734944,-0.6
 07233,0.099906\C,0,-2.88323,0.547311,0.050103\C,0,-3.563833,-0.606562,
 0.492429\C,0,-1.417496,-1.754572,0.542023\C,0,-2.797022,-1.756838,0.73
 549\C,0,0.734879,-0.607224,-0.099914\C,0,1.506829,0.544457,0.141106\C,
 0,1.41743,-1.754524,-0.542122\C,0,2.796956,-1.756765,-0.735613\C,0,2.8
 8316,0.547326,-0.050025\C,0,3.563761,-0.606509,-0.492462\N,0,-4.952746
 ,-0.583742,0.625381\O,0,3.61765,1.706691,0.155168\C,0,4.088404,1.86906
 9,1.500707\N,0,4.952681,-0.583649,-0.625434\H,0,-1.041489,1.459786,-0.
 49566\H,0,-0.85767,-2.657214,0.769856\H,0,1.041425,1.45975,0.495823\H,
 0,0.857605,-2.657148,-0.770027\H,0,3.291328,-2.657883,-1.091165\H,0,-5
 .316442,0.347677,0.796778\H,0,-5.321204,-1.252725,1.292156\H,0,4.65783
 5,2.801001,1.52003\H,0,3.2489,1.938821,2.203058\H,0,4.73862,1.036762,1
 .795776\H,0,5.316329,0.347728,-0.79717\H,0,5.32114,-1.252832,-1.29201\
 O,0,-3.617756,1.706672,-0.155005\C,0,-4.087988,1.869448,-1.500676\H,0,
 -3.2914,-2.65799,1.090945\H,0,-4.657544,2.801305,-1.519909\H,0,-3.2482
 18,1.939556,-2.202673\H,0,-4.737968,1.037148,-1.796293\\Version=EM64L-
 G16RevC.01\State=1-A\HF=-798.0611329\RMSD=7.121e-09\Dipole=0.0001873,-
 0.2447181,-0.000166\Quadrupole=7.6499968,-3.1676577,-4.4823391,-0.0020
 955,-3.7853144,-0.0009699\PG=C01 [X(C14H16N2O2)]\\@


 ERWIN WITH HIS PSI CAN DO
 CALCULATIONS QUITE A FEW.
 BUT ONE THING HAS NOT BEEN SEEN
 JUST WHAT DOES PSI REALLY MEAN.
 -- WALTER HUCKEL, TRANS. BY FELIX BLOCH
 Job cpu time:       0 days  0 hours  4 minutes 26.1 seconds.
 Elapsed time:       0 days  0 hours  0 minutes 33.8 seconds.
 File lengths (MBytes):  RWF=     54 Int=      0 D2E=      0 Chk=      7 Scr=      1
 Normal termination of Gaussian 16 at Fri Nov 11 10:23:58 2022.
