 Entering Gaussian System, Link 0=g16
 Input=Conformes_2_MM_water_ESP.gjf
 Output=Conformes_2_MM_water_ESP.log
 Initial command:
 /home/Programs/g16_gost/l1.exe "/storage/users/gost/Gau-2217.inp" -scrdir="/storage/users/gost/"
 Entering Link 1 = /home/Programs/g16_gost/l1.exe PID=      2218.
  
 Copyright (c) 1988-2019, Gaussian, Inc.  All Rights Reserved.
  
 This is part of the Gaussian(R) 16 program.  It is based on
 the Gaussian(R) 09 system (copyright 2009, Gaussian, Inc.),
 the Gaussian(R) 03 system (copyright 2003, Gaussian, Inc.),
 the Gaussian(R) 98 system (copyright 1998, Gaussian, Inc.),
 the Gaussian(R) 94 system (copyright 1995, Gaussian, Inc.),
 the Gaussian 92(TM) system (copyright 1992, Gaussian, Inc.),
 the Gaussian 90(TM) system (copyright 1990, Gaussian, Inc.),
 the Gaussian 88(TM) system (copyright 1988, Gaussian, Inc.),
 the Gaussian 86(TM) system (copyright 1986, Carnegie Mellon
 University), and the Gaussian 82(TM) system (copyright 1983,
 Carnegie Mellon University). Gaussian is a federally registered
 trademark of Gaussian, Inc.
  
 This software contains proprietary and confidential information,
 including trade secrets, belonging to Gaussian, Inc.
  
 This software is provided under written license and may be
 used, copied, transmitted, or stored only in accord with that
 written license.
  
 The following legend is applicable only to US Government
 contracts under FAR:
  
                    RESTRICTED RIGHTS LEGEND
  
 Use, reproduction and disclosure by the US Government is
 subject to restrictions as set forth in subparagraphs (a)
 and (c) of the Commercial Computer Software - Restricted
 Rights clause in FAR 52.227-19.
  
 Gaussian, Inc.
 340 Quinnipiac St., Bldg. 40, Wallingford CT 06492
  
  
 ---------------------------------------------------------------
 Warning -- This program may not be used in any manner that
 competes with the business of Gaussian, Inc. or will provide
 assistance to any competitor of Gaussian, Inc.  The licensee
 of this program is prohibited from giving any competitor of
 Gaussian, Inc. access to this program.  By using this program,
 the user acknowledges that Gaussian, Inc. is engaged in the
 business of creating and licensing software in the field of
 computational chemistry and represents and warrants to the
 licensee that it is not a competitor of Gaussian, Inc. and that
 it will not use this program in any manner prohibited above.
 ---------------------------------------------------------------
  

 Cite this work as:
 Gaussian 16, Revision C.01,
 M. J. Frisch, G. W. Trucks, H. B. Schlegel, G. E. Scuseria, 
 M. A. Robb, J. R. Cheeseman, G. Scalmani, V. Barone, 
 G. A. Petersson, H. Nakatsuji, X. Li, M. Caricato, A. V. Marenich, 
 J. Bloino, B. G. Janesko, R. Gomperts, B. Mennucci, H. P. Hratchian, 
 J. V. Ortiz, A. F. Izmaylov, J. L. Sonnenberg, D. Williams-Young, 
 F. Ding, F. Lipparini, F. Egidi, J. Goings, B. Peng, A. Petrone, 
 T. Henderson, D. Ranasinghe, V. G. Zakrzewski, J. Gao, N. Rega, 
 G. Zheng, W. Liang, M. Hada, M. Ehara, K. Toyota, R. Fukuda, 
 J. Hasegawa, M. Ishida, T. Nakajima, Y. Honda, O. Kitao, H. Nakai, 
 T. Vreven, K. Throssell, J. A. Montgomery, Jr., J. E. Peralta, 
 F. Ogliaro, M. J. Bearpark, J. J. Heyd, E. N. Brothers, K. N. Kudin, 
 V. N. Staroverov, T. A. Keith, R. Kobayashi, J. Normand, 
 K. Raghavachari, A. P. Rendell, J. C. Burant, S. S. Iyengar, 
 J. Tomasi, M. Cossi, J. M. Millam, M. Klene, C. Adamo, R. Cammi, 
 J. W. Ochterski, R. L. Martin, K. Morokuma, O. Farkas, 
 J. B. Foresman, and D. J. Fox, Gaussian, Inc., Wallingford CT, 2019.
 
 ******************************************
 Gaussian 16:  EM64L-G16RevC.01  3-Jul-2019
                11-Nov-2022 
 ******************************************
 %chk=Conformes_2_MM_water_ESP.chk
 %mem=32GB
 %nprocshared=8
 Will use up to    8 processors via shared memory.
 ----------------------------------------------------------------------
 # HF 6-31G(d) scf=nosymm test pop=MK iop(6/33=2) iop(6/42=6) geom=dist
 ance
 ----------------------------------------------------------------------
 1/38=1,172=1/1;
 2/9=2,12=2,17=6,18=5,40=1/2;
 3/5=1,6=6,7=1,11=9,25=1,30=1/1,2,3;
 4/9=2/1;
 5/5=2,38=5/2;
 6/7=2,8=2,9=2,10=2,15=8,20=1,28=1,33=2,42=6/1,2;
 99/5=1,9=1/99;
 ---------------
 conformer 2 ESP
 ---------------
 Symbolic Z-matrix:
 Charge =  0 Multiplicity = 1
 C                     1.52929   0.46227   0.12702 
 C                     0.80209  -0.73564  -0.04449 
 C                     2.91844   0.47923   0.05599 
 C                     3.64648  -0.71254  -0.18245 
 C                     1.52805  -1.91077  -0.28141 
 C                     2.9228   -1.89745  -0.34542 
 C                    -0.67973  -0.73985   0.02691 
 C                    -1.43879   0.35527  -0.42604 
 C                    -1.38894  -1.83988   0.54223 
 C                    -2.78055  -1.85253   0.59953 
 C                    -2.82729   0.35122  -0.36236 
 C                    -3.53379  -0.75532   0.15278 
 N                     5.03814  -0.65585  -0.30664 
 O                    -3.55967   1.41632  -0.86811 
 C                    -3.73804   2.49578   0.05916 
 N                    -4.92545  -0.70748   0.24734 
 H                     0.99304   1.37848   0.3452 
 H                     1.00375  -2.84808  -0.44258 
 H                    -0.95288   1.2188   -0.87149 
 H                    -0.84314  -2.69848   0.92288 
 H                    -3.29713  -2.71793   1.00826 
 H                     5.44971   0.13233   0.1807 
 H                     5.50793  -1.52122  -0.06469 
 H                    -4.33393   3.25256  -0.45594 
 H                    -4.26954   2.16118   0.95836 
 H                    -2.7725    2.92695   0.35025 
 H                    -5.34097  -0.06281  -0.41666 
 H                    -5.37897  -1.6137    0.21598 
 O                     3.70056   1.59486   0.22261 
 C                     3.05932   2.83164   0.51456 
 H                     3.46476  -2.8207   -0.53749 
 H                     3.85833   3.56837   0.61105 
 H                     2.38304   3.13124  -0.29534 
 H                     2.49647   2.77817   1.45464 
 
                          Input orientation:                          
 ---------------------------------------------------------------------
 Center     Atomic      Atomic             Coordinates (Angstroms)
 Number     Number       Type             X           Y           Z
 ---------------------------------------------------------------------
      1          6           0        1.529294    0.462265    0.127023
      2          6           0        0.802093   -0.735638   -0.044494
      3          6           0        2.918441    0.479230    0.055986
      4          6           0        3.646481   -0.712535   -0.182450
      5          6           0        1.528051   -1.910766   -0.281406
      6          6           0        2.922800   -1.897445   -0.345423
      7          6           0       -0.679733   -0.739851    0.026906
      8          6           0       -1.438791    0.355271   -0.426035
      9          6           0       -1.388943   -1.839875    0.542225
     10          6           0       -2.780552   -1.852527    0.599530
     11          6           0       -2.827289    0.351215   -0.362360
     12          6           0       -3.533791   -0.755315    0.152782
     13          7           0        5.038137   -0.655845   -0.306640
     14          8           0       -3.559665    1.416316   -0.868112
     15          6           0       -3.738035    2.495777    0.059155
     16          7           0       -4.925449   -0.707478    0.247340
     17          1           0        0.993038    1.378478    0.345196
     18          1           0        1.003749   -2.848083   -0.442577
     19          1           0       -0.952879    1.218797   -0.871487
     20          1           0       -0.843138   -2.698479    0.922883
     21          1           0       -3.297128   -2.717931    1.008263
     22          1           0        5.449711    0.132327    0.180695
     23          1           0        5.507928   -1.521215   -0.064685
     24          1           0       -4.333932    3.252560   -0.455940
     25          1           0       -4.269539    2.161179    0.958355
     26          1           0       -2.772503    2.926950    0.350252
     27          1           0       -5.340973   -0.062810   -0.416656
     28          1           0       -5.378967   -1.613703    0.215975
     29          8           0        3.700561    1.594862    0.222607
     30          6           0        3.059319    2.831643    0.514560
     31          1           0        3.464758   -2.820702   -0.537492
     32          1           0        3.858327    3.568368    0.611053
     33          1           0        2.383039    3.131243   -0.295341
     34          1           0        2.496469    2.778166    1.454641
 ---------------------------------------------------------------------
                    Distance matrix (angstroms):
                    1          2          3          4          5
     1  C    0.000000
     2  C    1.411811   0.000000
     3  C    1.391066   2.442320   0.000000
     4  C    2.440985   2.847825   1.416756   0.000000
     5  C    2.407923   1.401452   2.785516   2.435836   0.000000
     6  C    2.780880   2.436750   2.410339   1.397958   1.396281
     7  C    2.516924   1.483551   3.799192   4.331363   2.518017
     8  C    3.021068   2.521352   4.385565   5.201878   3.736040
     9  C    3.740100   2.522740   4.916120   5.210714   3.031872
    10  C    4.914906   3.807565   6.181509   6.574027   4.398125
    11  C    4.385390   3.801934   5.762362   6.563050   4.908370
    12  C    5.207494   4.340414   6.569990   7.188221   5.210166
    13  N    3.708128   4.244898   2.431667   1.398336   3.727756
    14  O    5.272382   4.932969   6.610442   7.545242   6.107254
    15  C    5.646639   5.573648   6.955224   8.054981   6.874974
    16  N    6.560982   5.735041   7.935459   8.582699   6.585980
    17  H    1.083797   2.158195   2.144637   3.419284   3.390869
    18  H    3.399860   2.159064   3.871127   3.407677   1.086016
    19  H    2.780386   2.753845   4.048986   5.035765   4.037001
    20  H    4.031393   2.737763   4.999882   5.032138   2.773687
    21  H    5.846758   4.673478   7.054216   7.324829   5.059359
    22  H    3.934642   4.733331   2.557972   2.024180   4.446030
    23  H    4.449772   4.770998   3.274414   2.032933   4.004765
    24  H    6.519433   6.515655   7.781410   8.915367   7.813657
    25  H    6.099499   5.926104   7.437088   8.498414   7.192343
    26  H    4.962858   5.133041   6.201997   7.398174   6.503634
    27  H    6.911719   6.190998   8.290664   9.013952   7.114543
    28  H    7.213988   6.248547   8.558793   9.079073   6.931272
    29  O    2.450778   3.728765   1.372629   2.343305   4.154908
    30  C    2.846948   4.258298   2.400830   3.659478   5.046661
    31  H    3.868523   3.417649   3.397091   2.145564   2.155086
    32  H    3.912359   5.319283   3.276318   4.358974   6.020596
    33  H    2.833852   4.185103   2.728234   4.047673   5.114006
    34  H    2.839259   4.179131   2.723858   4.023380   5.092914
                    6          7          8          9         10
     6  C    0.000000
     7  C    3.802223   0.000000
     8  C    4.909654   1.407344   0.000000
     9  C    4.402540   1.406622   2.399725   0.000000
    10  C    5.781278   2.445278   2.779654   1.392846   0.000000
    11  C    6.174162   2.440072   1.389963   2.772722   2.404973
    12  C    6.575731   2.856874   2.440790   2.434812   1.403861
    13  N    2.453105   5.728206   6.556463   6.590133   7.961475
    14  O    7.299080   3.707307   2.412334   4.159791   3.666923
    15  C    7.989418   4.452363   3.178632   4.954742   4.485145
    16  N    7.960050   4.251558   3.706704   3.725071   2.456778
    17  H    3.864273   2.717865   2.748735   4.008797   4.974340
    18  H    2.143807   2.738461   4.028368   2.776922   4.049451
    19  H    5.000859   2.172101   1.086377   3.397677   3.864882
    20  H    4.053708   2.160023   3.391131   1.086280   2.138636
    21  H    6.418190   3.424415   3.867195   2.151591   1.087583
    22  H    3.283604   6.193095   6.918763   7.126533   8.476573
    23  H    2.627404   6.237473   7.204768   6.930852   8.321649
    24  H    8.899153   5.433752   4.095976   5.966757   5.439570
    25  H    8.360742   4.708533   3.631938   4.947669   4.296007
    26  H    7.496348   4.234344   2.999157   4.967264   4.785980
    27  H    8.465276   4.730993   3.924526   4.438012   3.285038
    28  H    8.325564   4.783531   4.451294   4.009724   2.637406
    29  O    3.622676   4.967510   5.326374   6.148384   7.350605
    30  C    4.808584   5.193639   5.220166   6.450650   7.486839
    31  H    1.087664   4.671755   5.843288   5.068158   6.421377
    32  H    5.627181   6.284582   6.281640   7.535760   8.570936
    33  H    5.057821   4.946694   4.725409   6.296140   7.231973
    34  H    5.028253   4.950064   4.989352   6.103706   7.072587
                   11         12         13         14         15
    11  C    0.000000
    12  C    1.410293   0.000000
    13  N    7.929830   8.584807   0.000000
    14  O    1.388020   2.399766   8.861789   0.000000
    15  C    2.367758   3.258847   9.332080   1.434181   0.000000
    16  N    2.427929   1.395687   9.979108   2.760453   3.421434
    17  H    4.018806   5.008221   4.574515   4.711757   4.869623
    18  H    4.991873   5.032236   4.593547   6.260266   7.161919
    19  H    2.127280   3.406956   6.302825   2.614261   3.202166
    20  H    3.858671   3.407133   6.346139   5.245829   6.008889
    21  H    3.393967   2.154001   8.686646   4.547714   5.317702
    22  H    8.297683   9.027292   1.013954   9.160648   9.487642
    23  H    8.548125   9.076705   1.013958   9.565345  10.081636
    24  H    3.270555   4.132049  10.155471   2.034986   1.092308
    25  H    2.664647   3.113874   9.806563   2.096360   1.096819
    26  H    2.673056   3.765319   8.618238   2.094290   1.096768
    27  H    2.548131   2.017357  10.396621   2.358958   3.056497
    28  H    3.272069   2.036050  10.474095   3.696772   4.427762
    29  O    6.670957   7.606843   2.671122   7.343870   7.494736
    30  C    6.447764   7.514403   4.093002   6.908392   6.820867
    31  H    7.048516   7.329529   2.686153   8.210003   8.972244
    32  H    7.482985   8.575993   4.480858   7.864214   7.691538
    33  H    5.905977   7.093308   4.625117   6.211664   6.164173
    34  H    6.126498   7.109456   4.621106   6.627713   6.395011
                   16         17         18         19         20
    16  N    0.000000
    17  H    6.276088   0.000000
    18  H    6.341417   4.299363   0.000000
    19  H    4.554517   2.300524   4.533417   0.000000
    20  H    4.591918   4.508530   2.301707   4.310088   0.000000
    21  H    2.696730   5.968731   4.540861   4.952453   2.455552
    22  H   10.409306   4.630539   5.388682   6.578804   6.940047
    23  H   10.469713   5.381492   4.710733   7.064037   6.534316
    24  H    4.065267   5.703561   8.106100   3.967416   7.035742
    25  H    3.027367   5.355679   7.406948   3.903414   5.946239
    26  H    4.225498   4.071497   6.945478   2.778752   5.974597
    27  H    1.014469   6.540445   6.929207   4.593991   5.382531
    28  H    1.013857   7.040759   6.534252   5.366180   4.717012
    29  O    8.928014   2.718921   5.239754   4.795099   6.290339
    30  C    8.738038   2.531776   6.115617   4.540939   6.780719
    31  H    8.687764   4.951934   2.462991   5.995383   4.550341
    32  H    9.775984   3.616100   7.101380   5.555728   7.840560
    33  H    8.273106   2.326924   6.138115   3.888154   6.773326
    34  H    8.288073   2.334588   6.122281   4.443029   6.436566
                   21         22         23         24         25
    21  H    0.000000
    22  H    9.236668   0.000000
    23  H    8.950551   1.672663   0.000000
    24  H    6.234229  10.288869  10.945511   0.000000
    25  H    4.975318   9.959157  10.497881   1.787593   0.000000
    26  H    5.707267   8.685820   9.408713   1.787184   1.788103
    27  H    3.641066  10.808967  10.952145   3.465163   2.825731
    28  H    2.486180  10.968598  10.890905   5.022358   4.003960
    29  O    8.257426   2.280415   3.613730   8.231735   8.023997
    30  C    8.452570   3.621015   5.027781   7.468547   7.372831
    31  H    6.937076   3.629905   2.467135   9.884874   9.320732
    32  H    9.532883   3.811048   5.392741   8.267485   8.256089
    33  H    8.256907   4.315621   5.609233   6.719986   6.838828
    34  H    7.998256   4.164738   5.464606   7.108428   6.812183
                   26         27         28         29         30
    26  H    0.000000
    27  H    4.015452   0.000000
    28  H    5.237291   1.675391   0.000000
    29  O    6.609940   9.214438   9.629785   0.000000
    30  C    5.834915   8.933640   9.542270   1.423396   0.000000
    31  H    8.528014   9.228297   8.957457   4.486709   5.763697
    32  H    6.666884   9.943277  10.598941   2.017550   1.091095
    33  H    5.199821   8.359250   9.111789   2.089163   1.096838
    34  H    5.385525   8.543910   9.101939   2.089965   1.097001
                   31         32         33         34
    31  H    0.000000
    32  H    6.503404   0.000000
    33  H    6.054288   1.785806   0.000000
    34  H    6.021088   1.786258   1.788845   0.000000
 Stoichiometry    C14H16N2O2
 Framework group  C1[X(C14H16N2O2)]
 Deg. of freedom    96
 Full point group                 C1      NOp   1
 Largest Abelian subgroup         C1      NOp   1
 Largest concise Abelian subgroup C1      NOp   1
                         Standard orientation:                         
 ---------------------------------------------------------------------
 Center     Atomic      Atomic             Coordinates (Angstroms)
 Number     Number       Type             X           Y           Z
 ---------------------------------------------------------------------
      1          6           0        1.529294    0.462265    0.127023
      2          6           0        0.802093   -0.735638   -0.044494
      3          6           0        2.918441    0.479230    0.055986
      4          6           0        3.646481   -0.712535   -0.182450
      5          6           0        1.528051   -1.910766   -0.281406
      6          6           0        2.922800   -1.897445   -0.345423
      7          6           0       -0.679733   -0.739851    0.026906
      8          6           0       -1.438791    0.355271   -0.426035
      9          6           0       -1.388943   -1.839875    0.542225
     10          6           0       -2.780552   -1.852527    0.599530
     11          6           0       -2.827289    0.351215   -0.362360
     12          6           0       -3.533791   -0.755315    0.152782
     13          7           0        5.038137   -0.655845   -0.306640
     14          8           0       -3.559665    1.416316   -0.868112
     15          6           0       -3.738035    2.495777    0.059155
     16          7           0       -4.925449   -0.707478    0.247340
     17          1           0        0.993038    1.378478    0.345196
     18          1           0        1.003749   -2.848083   -0.442577
     19          1           0       -0.952879    1.218797   -0.871487
     20          1           0       -0.843138   -2.698479    0.922883
     21          1           0       -3.297128   -2.717931    1.008263
     22          1           0        5.449711    0.132327    0.180695
     23          1           0        5.507928   -1.521215   -0.064685
     24          1           0       -4.333932    3.252560   -0.455940
     25          1           0       -4.269539    2.161179    0.958355
     26          1           0       -2.772503    2.926950    0.350252
     27          1           0       -5.340973   -0.062810   -0.416656
     28          1           0       -5.378967   -1.613703    0.215975
     29          8           0        3.700561    1.594862    0.222607
     30          6           0        3.059319    2.831643    0.514560
     31          1           0        3.464758   -2.820702   -0.537492
     32          1           0        3.858327    3.568368    0.611053
     33          1           0        2.383039    3.131243   -0.295341
     34          1           0        2.496469    2.778166    1.454641
 ---------------------------------------------------------------------
 Rotational constants (GHZ):           0.8506670           0.2042222           0.1691468
 Standard basis: 6-31G(d) (6D, 7F)
 There are   302 symmetry adapted cartesian basis functions of A   symmetry.
 There are   302 symmetry adapted basis functions of A   symmetry.
   302 basis functions,   568 primitive gaussians,   302 cartesian basis functions
    65 alpha electrons       65 beta electrons
       nuclear repulsion energy      1245.1640533919 Hartrees.
 NAtoms=   34 NActive=   34 NUniq=   34 SFac= 1.00D+00 NAtFMM=   60 NAOKFM=F Big=F
 Integral buffers will be    131072 words long.
 Raffenetti 1 integral format.
 Two-electron integral symmetry is turned on.
 One-electron integrals computed using PRISM.
 NBasis=   302 RedAO= T EigKep=  3.43D-04  NBF=   302
 NBsUse=   302 1.00D-06 EigRej= -1.00D+00 NBFU=   302
 SCF N**3 symmetry information disabled.
 ExpMin= 1.61D-01 ExpMax= 5.48D+03 ExpMxC= 8.25D+02 IAcc=3 IRadAn=         5 AccDes= 0.00D+00
 Harris functional with IExCor=  205 and IRadAn=       5 diagonalized for initial guess.
 HarFok:  IExCor=  205 AccDes= 0.00D+00 IRadAn=         5 IDoV= 1 UseB2=F ITyADJ=14
 ICtDFT=  3500011 ScaDFX=  1.000000  1.000000  1.000000  1.000000
 FoFCou: FMM=F IPFlag=           0 FMFlag=      100000 FMFlg1=           0
         NFxFlg=           0 DoJE=T BraDBF=F KetDBF=T FulRan=T
         wScrn=  0.000000 ICntrl=       500 IOpCl=  0 I1Cent=   200000004 NGrid=           0
         NMat0=    1 NMatS0=      1 NMatT0=    0 NMatD0=    1 NMtDS0=    0 NMtDT0=    0
 Petite list used in FoFCou.
 Requested convergence on RMS density matrix=1.00D-08 within 128 cycles.
 Requested convergence on MAX density matrix=1.00D-06.
 Requested convergence on             energy=1.00D-06.
 No special actions if energy rises.
 Integral accuracy reduced to 1.0D-05 until final iterations.
 Initial convergence to 1.0D-05 achieved.  Increase integral accuracy.
 SCF Done:  E(RHF) =  -798.060532673     A.U. after   15 cycles
            NFock= 15  Conv=0.87D-08     -V/T= 2.0024
 SCF density gives NOpUse=  1 NOpAll=  1.

 **********************************************************************

            Population analysis using the SCF Density.

 **********************************************************************

 Orbital symmetries:
 BldTbl:  Degeneracy threshold= 1.00D-02
       Occupied  (A) (A) (A) (A) (A) (A) (A) (A) (A) (A) (A) (A)
                 (A) (A) (A) (A) (A) (A) (A) (A) (A) (A) (A) (A)
                 (A) (A) (A) (A) (A) (A) (A) (A) (A) (A) (A) (A)
                 (A) (A) (A) (A) (A) (A) (A) (A) (A) (A) (A) (A)
                 (A) (A) (A) (A) (A) (A) (A) (A) (A) (A) (A) (A)
                 (A) (A) (A) (A) (A)
       Virtual   (A) (A) (A) (A) (A) (A) (A) (A) (A) (A) (A) (A)
                 (A) (A) (A) (A) (A) (A) (A) (A) (A) (A) (A) (A)
                 (A) (A) (A) (A) (A) (A) (A) (A) (A) (A) (A) (A)
                 (A) (A) (A) (A) (A) (A) (A) (A) (A) (A) (A) (A)
                 (A) (A) (A) (A) (A) (A) (A) (A) (A) (A) (A) (A)
                 (A) (A) (A) (A) (A) (A) (A) (A) (A) (A) (A) (A)
                 (A) (A) (A) (A) (A) (A) (A) (A) (A) (A) (A) (A)
                 (A) (A) (A) (A) (A) (A) (A) (A) (A) (A) (A) (A)
                 (A) (A) (A) (A) (A) (A) (A) (A) (A) (A) (A) (A)
                 (A) (A) (A) (A) (A) (A) (A) (A) (A) (A) (A) (A)
                 (A) (A) (A) (A) (A) (A) (A) (A) (A) (A) (A) (A)
                 (A) (A) (A) (A) (A) (A) (A) (A) (A) (A) (A) (A)
                 (A) (A) (A) (A) (A) (A) (A) (A) (A) (A) (A) (A)
                 (A) (A) (A) (A) (A) (A) (A) (A) (A) (A) (A) (A)
                 (A) (A) (A) (A) (A) (A) (A) (A) (A) (A) (A) (A)
                 (A) (A) (A) (A) (A) (A) (A) (A) (A) (A) (A) (A)
                 (A) (A) (A) (A) (A) (A) (A) (A) (A) (A) (A) (A)
                 (A) (A) (A) (A) (A) (A) (A) (A) (A) (A) (A) (A)
                 (A) (A) (A) (A) (A) (A) (A) (A) (A) (A) (A) (A)
                 (A) (A) (A) (A) (A) (A) (A) (A) (A)
 The electronic state is 1-A.
 Alpha  occ. eigenvalues --  -20.58801 -20.57593 -15.56279 -15.55597 -11.28911
 Alpha  occ. eigenvalues --  -11.28734 -11.27976 -11.27872 -11.27266 -11.26799
 Alpha  occ. eigenvalues --  -11.23367 -11.23297 -11.23034 -11.23012 -11.22853
 Alpha  occ. eigenvalues --  -11.22674 -11.22458 -11.22340  -1.40155  -1.38582
 Alpha  occ. eigenvalues --   -1.21295  -1.20764  -1.14136  -1.10565  -1.01772
 Alpha  occ. eigenvalues --   -1.01027  -1.00313  -0.96339  -0.93530  -0.92023
 Alpha  occ. eigenvalues --   -0.83914  -0.82295  -0.80942  -0.77389  -0.71520
 Alpha  occ. eigenvalues --   -0.70127  -0.68753  -0.68048  -0.67551  -0.65633
 Alpha  occ. eigenvalues --   -0.64988  -0.62811  -0.62286  -0.61986  -0.61521
 Alpha  occ. eigenvalues --   -0.59680  -0.58773  -0.58654  -0.56482  -0.55265
 Alpha  occ. eigenvalues --   -0.53539  -0.53354  -0.51505  -0.51324  -0.49825
 Alpha  occ. eigenvalues --   -0.48703  -0.47921  -0.47291  -0.45899  -0.43934
 Alpha  occ. eigenvalues --   -0.42260  -0.32690  -0.32065  -0.30460  -0.24839
 Alpha virt. eigenvalues --    0.12548   0.14604   0.15847   0.20463   0.23011
 Alpha virt. eigenvalues --    0.23625   0.24277   0.25858   0.26249   0.26768
 Alpha virt. eigenvalues --    0.29190   0.30252   0.30560   0.31352   0.31968
 Alpha virt. eigenvalues --    0.32122   0.32433   0.32820   0.33384   0.34135
 Alpha virt. eigenvalues --    0.35063   0.36465   0.39243   0.39951   0.43117
 Alpha virt. eigenvalues --    0.44800   0.46331   0.48025   0.50144   0.50979
 Alpha virt. eigenvalues --    0.51953   0.54299   0.54454   0.57300   0.58450
 Alpha virt. eigenvalues --    0.63349   0.64383   0.67436   0.69493   0.71771
 Alpha virt. eigenvalues --    0.73557   0.74023   0.74726   0.75031   0.76006
 Alpha virt. eigenvalues --    0.76219   0.77334   0.77929   0.78663   0.79564
 Alpha virt. eigenvalues --    0.79971   0.81428   0.81868   0.82430   0.83571
 Alpha virt. eigenvalues --    0.84454   0.85855   0.86576   0.87150   0.88801
 Alpha virt. eigenvalues --    0.89509   0.90709   0.91414   0.92256   0.94588
 Alpha virt. eigenvalues --    0.94944   0.96535   0.97003   0.97948   0.99091
 Alpha virt. eigenvalues --    1.01507   1.03185   1.04069   1.06072   1.06675
 Alpha virt. eigenvalues --    1.08246   1.08938   1.10404   1.11469   1.12299
 Alpha virt. eigenvalues --    1.12773   1.13380   1.13631   1.13926   1.14793
 Alpha virt. eigenvalues --    1.15571   1.17054   1.18019   1.18682   1.19206
 Alpha virt. eigenvalues --    1.19485   1.20076   1.20988   1.21628   1.22719
 Alpha virt. eigenvalues --    1.23449   1.25388   1.25555   1.27302   1.28206
 Alpha virt. eigenvalues --    1.29670   1.30599   1.31060   1.34463   1.34675
 Alpha virt. eigenvalues --    1.35760   1.37329   1.38332   1.39910   1.41146
 Alpha virt. eigenvalues --    1.42693   1.43683   1.46314   1.48975   1.50305
 Alpha virt. eigenvalues --    1.52369   1.53076   1.54765   1.58552   1.60795
 Alpha virt. eigenvalues --    1.61234   1.62437   1.64388   1.67520   1.69170
 Alpha virt. eigenvalues --    1.69503   1.70594   1.74142   1.75171   1.75528
 Alpha virt. eigenvalues --    1.78108   1.78465   1.79943   1.80312   1.82096
 Alpha virt. eigenvalues --    1.85558   1.86827   1.93432   1.96279   1.97771
 Alpha virt. eigenvalues --    2.05042   2.06940   2.07726   2.08466   2.08823
 Alpha virt. eigenvalues --    2.11360   2.12709   2.15165   2.17497   2.18317
 Alpha virt. eigenvalues --    2.19620   2.19919   2.20893   2.24183   2.25124
 Alpha virt. eigenvalues --    2.26256   2.27680   2.30888   2.32631   2.32866
 Alpha virt. eigenvalues --    2.35713   2.37246   2.37639   2.39317   2.40180
 Alpha virt. eigenvalues --    2.41127   2.43512   2.44092   2.45242   2.46347
 Alpha virt. eigenvalues --    2.49195   2.49706   2.49961   2.52092   2.53555
 Alpha virt. eigenvalues --    2.54606   2.57007   2.59759   2.60749   2.61830
 Alpha virt. eigenvalues --    2.62579   2.63146   2.64462   2.66238   2.72909
 Alpha virt. eigenvalues --    2.73524   2.75157   2.77206   2.77499   2.80346
 Alpha virt. eigenvalues --    2.80902   2.82119   2.86992   2.89465   2.91683
 Alpha virt. eigenvalues --    2.92999   2.93603   2.94414   2.99328   3.00806
 Alpha virt. eigenvalues --    3.03589   3.03691   3.07075   3.09240   3.13193
 Alpha virt. eigenvalues --    3.15168   3.18757   3.19586   3.22903   3.25272
 Alpha virt. eigenvalues --    3.25363   3.33337   3.37930   3.40247   3.43404
 Alpha virt. eigenvalues --    3.55401   3.66158   3.76478   3.86847   4.26194
 Alpha virt. eigenvalues --    4.29064   4.50867   4.52662   4.53233   4.53927
 Alpha virt. eigenvalues --    4.55772   4.60442   4.64165   4.64867   4.70924
 Alpha virt. eigenvalues --    4.76208   4.77325   4.83712   4.89504   5.00527
 Alpha virt. eigenvalues --    5.22739   5.30489
          Condensed to atoms (all electrons):
               1          2          3          4          5          6
     1  C    5.122472   0.502982   0.533316  -0.051884  -0.050253  -0.040165
     2  C    0.502982   4.752445  -0.028527  -0.021950   0.575091  -0.042268
     3  C    0.533316  -0.028527   4.478138   0.573437  -0.030670  -0.036595
     4  C   -0.051884  -0.021950   0.573437   4.577309  -0.042875   0.575993
     5  C   -0.050253   0.575091  -0.030670  -0.042875   4.937870   0.521778
     6  C   -0.040165  -0.042268  -0.036595   0.575993   0.521778   4.973707
     7  C   -0.037311   0.371503   0.001833   0.000478  -0.042394   0.003804
     8  C   -0.010545  -0.035191   0.000223  -0.000001   0.003148  -0.000086
     9  C    0.003345  -0.042942  -0.000048  -0.000001  -0.009760   0.000189
    10  C   -0.000096   0.003697   0.000001   0.000000   0.000207  -0.000004
    11  C    0.000165   0.002184  -0.000001  -0.000000  -0.000048   0.000000
    12  C   -0.000003   0.000430  -0.000000   0.000000   0.000003   0.000000
    13  N    0.004022  -0.000016  -0.066085   0.297972   0.002943  -0.065984
    14  O    0.000003  -0.000072   0.000000  -0.000000   0.000000   0.000000
    15  C   -0.000004   0.000006  -0.000000   0.000000  -0.000000  -0.000000
    16  N   -0.000000  -0.000000  -0.000000   0.000000   0.000000   0.000000
    17  H    0.370914  -0.025706  -0.029089   0.001353   0.002876   0.000246
    18  H    0.003234  -0.029119   0.000379   0.001456   0.375085  -0.028420
    19  H    0.002759  -0.001533   0.000047  -0.000003  -0.000046  -0.000008
    20  H   -0.000061  -0.001019  -0.000006  -0.000006   0.003036   0.000024
    21  H    0.000001  -0.000108  -0.000000  -0.000000  -0.000003  -0.000000
    22  H    0.000188  -0.000010  -0.010142  -0.026875  -0.000082   0.003633
    23  H   -0.000078   0.000001   0.004340  -0.031272   0.000024  -0.005220
    24  H    0.000000  -0.000000   0.000000  -0.000000   0.000000   0.000000
    25  H    0.000000  -0.000001   0.000000  -0.000000  -0.000000   0.000000
    26  H   -0.000013   0.000012  -0.000000   0.000000   0.000000  -0.000000
    27  H   -0.000000   0.000000  -0.000000   0.000000  -0.000000   0.000000
    28  H    0.000000  -0.000000  -0.000000   0.000000   0.000000   0.000000
    29  O   -0.053790   0.003172   0.239222  -0.055935   0.000087   0.002496
    30  C   -0.007552  -0.000474  -0.042309   0.002955   0.000012  -0.000091
    31  H    0.000248   0.001570   0.002337  -0.033501  -0.023607   0.376514
    32  H    0.000326   0.000017   0.002022   0.000094  -0.000000   0.000004
    33  H    0.001310  -0.000225  -0.001389  -0.000148  -0.000007  -0.000002
    34  H    0.001031  -0.000301  -0.000935  -0.000267  -0.000000  -0.000015
               7          8          9         10         11         12
     1  C   -0.037311  -0.010545   0.003345  -0.000096   0.000165  -0.000003
     2  C    0.371503  -0.035191  -0.042942   0.003697   0.002184   0.000430
     3  C    0.001833   0.000223  -0.000048   0.000001  -0.000001  -0.000000
     4  C    0.000478  -0.000001  -0.000001   0.000000  -0.000000   0.000000
     5  C   -0.042394   0.003148  -0.009760   0.000207  -0.000048   0.000003
     6  C    0.003804  -0.000086   0.000189  -0.000004   0.000000   0.000000
     7  C    4.790429   0.512924   0.561920  -0.043072  -0.043687  -0.019805
     8  C    0.512924   5.028540  -0.047978  -0.037404   0.562504  -0.056520
     9  C    0.561920  -0.047978   4.928298   0.529906  -0.031426  -0.040620
    10  C   -0.043072  -0.037404   0.529906   4.998468  -0.034694   0.542802
    11  C   -0.043687   0.562504  -0.031426  -0.034694   4.569536   0.563105
    12  C   -0.019805  -0.056520  -0.040620   0.542802   0.563105   4.600996
    13  N   -0.000001   0.000000   0.000000   0.000000  -0.000000   0.000000
    14  O    0.003012  -0.046014   0.000044   0.003630   0.205662  -0.057364
    15  C   -0.000201  -0.004414   0.000031  -0.000197  -0.041085  -0.003090
    16  N    0.000017   0.003660   0.002956  -0.064333  -0.067187   0.299819
    17  H   -0.001694   0.003901  -0.000066  -0.000008   0.000068  -0.000007
    18  H   -0.001540  -0.000062   0.002801   0.000025  -0.000009  -0.000003
    19  H   -0.027175   0.368350   0.002909   0.000091  -0.028031   0.002669
    20  H   -0.029651   0.002806   0.375162  -0.027968   0.000449   0.001411
    21  H    0.001386   0.000293  -0.022975   0.375368   0.001764  -0.031489
    22  H    0.000000  -0.000000   0.000000   0.000000  -0.000000   0.000000
    23  H   -0.000000   0.000000   0.000000   0.000000  -0.000000   0.000000
    24  H    0.000004  -0.000072  -0.000000   0.000003   0.004859  -0.000152
    25  H    0.000059   0.000805  -0.000001  -0.000252  -0.002950   0.001839
    26  H   -0.000335   0.001836  -0.000015   0.000034  -0.001198   0.000306
    27  H   -0.000011   0.000193  -0.000082   0.003894  -0.010605  -0.028823
    28  H   -0.000001  -0.000073   0.000057  -0.004789   0.003907  -0.031697
    29  O   -0.000051   0.000002   0.000000   0.000000   0.000000  -0.000000
    30  C    0.000004  -0.000019   0.000000  -0.000000  -0.000000   0.000000
    31  H   -0.000109   0.000001  -0.000002  -0.000000  -0.000000  -0.000000
    32  H   -0.000000   0.000000  -0.000000   0.000000   0.000000  -0.000000
    33  H    0.000006  -0.000020   0.000000  -0.000000   0.000000   0.000000
    34  H   -0.000000   0.000001  -0.000000   0.000000  -0.000000  -0.000000
              13         14         15         16         17         18
     1  C    0.004022   0.000003  -0.000004  -0.000000   0.370914   0.003234
     2  C   -0.000016  -0.000072   0.000006  -0.000000  -0.025706  -0.029119
     3  C   -0.066085   0.000000  -0.000000  -0.000000  -0.029089   0.000379
     4  C    0.297972  -0.000000   0.000000   0.000000   0.001353   0.001456
     5  C    0.002943   0.000000  -0.000000   0.000000   0.002876   0.375085
     6  C   -0.065984   0.000000  -0.000000   0.000000   0.000246  -0.028420
     7  C   -0.000001   0.003012  -0.000201   0.000017  -0.001694  -0.001540
     8  C    0.000000  -0.046014  -0.004414   0.003660   0.003901  -0.000062
     9  C    0.000000   0.000044   0.000031   0.002956  -0.000066   0.002801
    10  C    0.000000   0.003630  -0.000197  -0.064333  -0.000008   0.000025
    11  C   -0.000000   0.205662  -0.041085  -0.067187   0.000068  -0.000009
    12  C    0.000000  -0.057364  -0.003090   0.299819  -0.000007  -0.000003
    13  N    7.070062  -0.000000   0.000000  -0.000000  -0.000067  -0.000066
    14  O   -0.000000   8.483610   0.200633  -0.009064  -0.000006  -0.000000
    15  C    0.000000   0.200633   4.848249   0.000523   0.000001  -0.000000
    16  N   -0.000000  -0.009064   0.000523   7.079170  -0.000000   0.000000
    17  H   -0.000067  -0.000006   0.000001  -0.000000   0.468551  -0.000118
    18  H   -0.000066  -0.000000  -0.000000   0.000000  -0.000118   0.473524
    19  H   -0.000000  -0.000182   0.000504  -0.000068   0.000779   0.000003
    20  H    0.000000   0.000001   0.000000  -0.000069   0.000001   0.000691
    21  H   -0.000000  -0.000042   0.000002  -0.001930   0.000000   0.000002
    22  H    0.326287   0.000000   0.000000   0.000000  -0.000005   0.000002
    23  H    0.330430   0.000000  -0.000000   0.000000   0.000002  -0.000005
    24  H   -0.000000  -0.032808   0.394362  -0.000006   0.000000   0.000000
    25  H   -0.000000  -0.035474   0.390028   0.000967  -0.000000   0.000000
    26  H   -0.000000  -0.036828   0.387385   0.000012   0.000050   0.000000
    27  H    0.000000   0.012987  -0.001682   0.325302  -0.000000   0.000000
    28  H    0.000000   0.000089  -0.000025   0.332316  -0.000000   0.000000
    29  O   -0.008030   0.000000   0.000000  -0.000000  -0.004255   0.000001
    30  C    0.000054   0.000000  -0.000000   0.000000   0.001846   0.000000
    31  H   -0.002256   0.000000  -0.000000  -0.000000   0.000010  -0.001479
    32  H   -0.000005   0.000000  -0.000000  -0.000000   0.000077  -0.000000
    33  H   -0.000016  -0.000000  -0.000000   0.000000  -0.000631   0.000000
    34  H    0.000005   0.000000  -0.000000  -0.000000   0.000027   0.000000
              19         20         21         22         23         24
     1  C    0.002759  -0.000061   0.000001   0.000188  -0.000078   0.000000
     2  C   -0.001533  -0.001019  -0.000108  -0.000010   0.000001  -0.000000
     3  C    0.000047  -0.000006  -0.000000  -0.010142   0.004340   0.000000
     4  C   -0.000003  -0.000006  -0.000000  -0.026875  -0.031272  -0.000000
     5  C   -0.000046   0.003036  -0.000003  -0.000082   0.000024   0.000000
     6  C   -0.000008   0.000024  -0.000000   0.003633  -0.005220   0.000000
     7  C   -0.027175  -0.029651   0.001386   0.000000  -0.000000   0.000004
     8  C    0.368350   0.002806   0.000293  -0.000000   0.000000  -0.000072
     9  C    0.002909   0.375162  -0.022975   0.000000   0.000000  -0.000000
    10  C    0.000091  -0.027968   0.375368   0.000000   0.000000   0.000003
    11  C   -0.028031   0.000449   0.001764  -0.000000  -0.000000   0.004859
    12  C    0.002669   0.001411  -0.031489   0.000000   0.000000  -0.000152
    13  N   -0.000000   0.000000  -0.000000   0.326287   0.330430  -0.000000
    14  O   -0.000182   0.000001  -0.000042   0.000000   0.000000  -0.032808
    15  C    0.000504   0.000000   0.000002   0.000000  -0.000000   0.394362
    16  N   -0.000068  -0.000069  -0.001930   0.000000   0.000000  -0.000006
    17  H    0.000779   0.000001   0.000000  -0.000005   0.000002   0.000000
    18  H    0.000003   0.000691   0.000002   0.000002  -0.000005   0.000000
    19  H    0.463072  -0.000110   0.000011  -0.000000  -0.000000  -0.000062
    20  H   -0.000110   0.469975  -0.001466   0.000000   0.000000   0.000000
    21  H    0.000011  -0.001466   0.478609  -0.000000  -0.000000  -0.000000
    22  H   -0.000000   0.000000  -0.000000   0.337763  -0.021631   0.000000
    23  H   -0.000000   0.000000  -0.000000  -0.021631   0.367017   0.000000
    24  H   -0.000062   0.000000  -0.000000   0.000000   0.000000   0.516345
    25  H    0.000110  -0.000000   0.000004  -0.000000  -0.000000  -0.029160
    26  H   -0.000042  -0.000000  -0.000000  -0.000000  -0.000000  -0.029415
    27  H   -0.000007   0.000002  -0.000102   0.000000   0.000000  -0.000035
    28  H    0.000002  -0.000005   0.002633   0.000000   0.000000   0.000000
    29  O   -0.000002   0.000000   0.000000   0.009942   0.000144   0.000000
    30  C    0.000004   0.000000  -0.000000  -0.000310   0.000003   0.000000
    31  H    0.000000   0.000003   0.000000  -0.000085   0.002794   0.000000
    32  H   -0.000000  -0.000000   0.000000  -0.000035  -0.000001   0.000000
    33  H    0.000087   0.000000  -0.000000   0.000046   0.000000  -0.000000
    34  H   -0.000015  -0.000000   0.000000  -0.000013   0.000000  -0.000000
              25         26         27         28         29         30
     1  C    0.000000  -0.000013  -0.000000   0.000000  -0.053790  -0.007552
     2  C   -0.000001   0.000012   0.000000  -0.000000   0.003172  -0.000474
     3  C    0.000000  -0.000000  -0.000000  -0.000000   0.239222  -0.042309
     4  C   -0.000000   0.000000   0.000000   0.000000  -0.055935   0.002955
     5  C   -0.000000   0.000000  -0.000000   0.000000   0.000087   0.000012
     6  C    0.000000  -0.000000   0.000000   0.000000   0.002496  -0.000091
     7  C    0.000059  -0.000335  -0.000011  -0.000001  -0.000051   0.000004
     8  C    0.000805   0.001836   0.000193  -0.000073   0.000002  -0.000019
     9  C   -0.000001  -0.000015  -0.000082   0.000057   0.000000   0.000000
    10  C   -0.000252   0.000034   0.003894  -0.004789   0.000000  -0.000000
    11  C   -0.002950  -0.001198  -0.010605   0.003907   0.000000  -0.000000
    12  C    0.001839   0.000306  -0.028823  -0.031697  -0.000000   0.000000
    13  N   -0.000000  -0.000000   0.000000   0.000000  -0.008030   0.000054
    14  O   -0.035474  -0.036828   0.012987   0.000089   0.000000   0.000000
    15  C    0.390028   0.387385  -0.001682  -0.000025   0.000000  -0.000000
    16  N    0.000967   0.000012   0.325302   0.332316  -0.000000   0.000000
    17  H   -0.000000   0.000050  -0.000000  -0.000000  -0.004255   0.001846
    18  H    0.000000   0.000000   0.000000   0.000000   0.000001   0.000000
    19  H    0.000110  -0.000042  -0.000007   0.000002  -0.000002   0.000004
    20  H   -0.000000  -0.000000   0.000002  -0.000005   0.000000   0.000000
    21  H    0.000004  -0.000000  -0.000102   0.002633   0.000000  -0.000000
    22  H   -0.000000  -0.000000   0.000000   0.000000   0.009942  -0.000310
    23  H   -0.000000  -0.000000   0.000000   0.000000   0.000144   0.000003
    24  H   -0.029160  -0.029415  -0.000035   0.000000   0.000000   0.000000
    25  H    0.540977  -0.038527  -0.000841   0.000010  -0.000000   0.000000
    26  H   -0.038527   0.562157   0.000145   0.000000  -0.000000  -0.000000
    27  H   -0.000841   0.000145   0.339982  -0.020868   0.000000   0.000000
    28  H    0.000010   0.000000  -0.020868   0.359528   0.000000   0.000000
    29  O   -0.000000  -0.000000   0.000000   0.000000   8.462244   0.202338
    30  C    0.000000  -0.000000   0.000000   0.000000   0.202338   4.846806
    31  H    0.000000  -0.000000  -0.000000  -0.000000  -0.000044   0.000002
    32  H    0.000000  -0.000000   0.000000   0.000000  -0.032267   0.402318
    33  H    0.000000  -0.000000  -0.000000   0.000000  -0.036851   0.388426
    34  H    0.000000   0.000000  -0.000000  -0.000000  -0.037327   0.387859
              31         32         33         34
     1  C    0.000248   0.000326   0.001310   0.001031
     2  C    0.001570   0.000017  -0.000225  -0.000301
     3  C    0.002337   0.002022  -0.001389  -0.000935
     4  C   -0.033501   0.000094  -0.000148  -0.000267
     5  C   -0.023607  -0.000000  -0.000007  -0.000000
     6  C    0.376514   0.000004  -0.000002  -0.000015
     7  C   -0.000109  -0.000000   0.000006  -0.000000
     8  C    0.000001   0.000000  -0.000020   0.000001
     9  C   -0.000002  -0.000000   0.000000  -0.000000
    10  C   -0.000000   0.000000  -0.000000   0.000000
    11  C   -0.000000   0.000000   0.000000  -0.000000
    12  C   -0.000000  -0.000000   0.000000  -0.000000
    13  N   -0.002256  -0.000005  -0.000016   0.000005
    14  O    0.000000   0.000000  -0.000000   0.000000
    15  C   -0.000000  -0.000000  -0.000000  -0.000000
    16  N   -0.000000  -0.000000   0.000000  -0.000000
    17  H    0.000010   0.000077  -0.000631   0.000027
    18  H   -0.001479  -0.000000   0.000000   0.000000
    19  H    0.000000  -0.000000   0.000087  -0.000015
    20  H    0.000003  -0.000000   0.000000  -0.000000
    21  H    0.000000   0.000000  -0.000000   0.000000
    22  H   -0.000085  -0.000035   0.000046  -0.000013
    23  H    0.002794  -0.000001   0.000000   0.000000
    24  H    0.000000   0.000000  -0.000000  -0.000000
    25  H    0.000000   0.000000   0.000000   0.000000
    26  H   -0.000000  -0.000000  -0.000000   0.000000
    27  H   -0.000000   0.000000  -0.000000  -0.000000
    28  H   -0.000000   0.000000   0.000000  -0.000000
    29  O   -0.000044  -0.032267  -0.036851  -0.037327
    30  C    0.000002   0.402318   0.388426   0.387859
    31  H    0.480926  -0.000000  -0.000000  -0.000000
    32  H   -0.000000   0.493080  -0.027766  -0.028069
    33  H   -0.000000  -0.027766   0.555567  -0.043193
    34  H   -0.000000  -0.028069  -0.043193   0.557070
 Mulliken charges:
               1
     1  C   -0.294559
     2  C    0.016353
     3  C    0.410502
     4  C    0.233671
     5  C   -0.222413
     6  C   -0.239529
     7  C   -0.000339
     8  C   -0.250790
     9  C   -0.211701
    10  C   -0.245306
    11  C    0.346719
    12  C    0.256193
    13  N   -0.889249
    14  O   -0.691818
    15  C   -0.171026
    16  N   -0.902087
    17  H    0.210950
    18  H    0.203616
    19  H    0.215888
    20  H    0.206799
    21  H    0.198044
    22  H    0.381330
    23  H    0.353449
    24  H    0.176137
    25  H    0.172406
    26  H    0.154435
    27  H    0.380549
    28  H    0.358914
    29  O   -0.691097
    30  C   -0.181871
    31  H    0.196677
    32  H    0.190205
    33  H    0.164807
    34  H    0.164142
 Sum of Mulliken charges =  -0.00000
 Mulliken charges with hydrogens summed into heavy atoms:
               1
     1  C   -0.083610
     2  C    0.016353
     3  C    0.410502
     4  C    0.233671
     5  C   -0.018797
     6  C   -0.042852
     7  C   -0.000339
     8  C   -0.034902
     9  C   -0.004901
    10  C   -0.047262
    11  C    0.346719
    12  C    0.256193
    13  N   -0.154471
    14  O   -0.691818
    15  C    0.331952
    16  N   -0.162624
    29  O   -0.691097
    30  C    0.337283
 DipInt: DoE/N= T F RetVal/Mat= T F Init=T NMatP=  1 IDeriv=0 Min/MaxMlt=  0  4
 Entering OneElI...
 OneElI was handed  4294731487 working-precision words.
 Multipole integrals L=0 to 4 MinM= 0 MaxM= 0.
 Requested accuracy = 0.1000D-12
 PrtBox:  NBox=     1 Levels=  1 BoxLen=   35.86 SMaxX=       20.57
          Shift=           10.164775            5.382097            1.646872
 Box      1 Number                   0 centers from      1 to    104:
 ShPair: Thresh= 1.00D-13 NBox=     1 BxSize= 3.59D+01 RnKept= 2.07D+01
         NSMCal=                 5460 NSMKep=                4193
 PrmmSu-InSpLW:  IPartL=    0 NPrtUS=    1 NPrtUL=    1 DoSpLW=F IThBeg=    0 IThEnd=    0 NThAct=    1.
 PrSmSu:  IncTry=   512 NBBP=           4193 NTPThr=   100 NPartT=    1 Incr=          41 LDynOK=F GPUOK=F.
 PrsmSu:  NPrtUS=   1 ThrOK=F IAlg=2 LenDen=           0 ISkipM=0 DoSpLW=F IThBeg=    0 IThEnd=    0.
 Prism:   IPart=     0 DynPar=F LinDyn=F Incr=          41.
 PRISM was handed  4294363924 working-precision words and  4193 shell-pairs
 IPart=  0 NShTot=        4193 NBatch=          68 AvBLen=        61.7
 PrsmSu-ThDecC:  IPartSL=    0    0 NPrtUSL=    1    1 IThBeg=    0 IThEnd=    0 CPU=   -1 GPU=   -1 NThAct=    1.
 PrSmSu:  NxtVal=             42.
 Electronic moments (au):
       -130.00000000         -0.27068121          0.28717100          0.73297553
      -4796.41069099      -1218.28794443       -170.61672627          0.62299116
          5.64523068          1.38916624        190.84155351      -1261.28059439
         -9.88034019       -292.49147848      -1439.19393126        177.27372265
        175.19026105        -48.08708369       -334.46514023      -1132.87219793
    -289981.22925824     -26681.40745924       -806.18982328       4923.84958693
       3146.62486789      -1390.00885412      -1024.29903461       -135.84499021
         35.17869633     -42815.78985879      -6093.16396792      -2025.38664423
       -461.58398800       -485.21352236        -69.75382236
 Electronic spatial extent (au):  <R**2>=           6185.3154
 DipInt: DoE/N= F T RetVal/Mat= T F Init=T NMatP=  1 IDeriv=0 Min/MaxMlt=  0  4
 Nuclear    moments (au):
        130.00000000          0.00000000          0.00000000          0.00000000
       4728.03754622       1153.79892891         85.33429044         -0.00000000
          0.00004826          0.00000789       -232.27464276       1300.23559013
         11.43574234        294.32696193       1398.89247907       -141.12294790
       -173.24017044         60.79806543        348.50449280       1133.31263207
     275407.98599725      22829.06959550        189.15561089      -4981.35079967
      -2283.18218251       1435.99073035       1033.76999697        213.67173023
        -32.57117711      40051.44748116       2921.53706835       1188.15580730
        516.33289040        455.72915639        116.77127722
 Total      moments (au):
         -0.00000000         -0.27068121          0.28717100          0.73297553
        -68.37314477        -64.48901552        -85.28243583          0.62299116
          5.64527894          1.38917413        -41.43308925         38.95499574
          1.55540216          1.83548344        -40.30145219         36.15077475
          1.95009061         12.71098174         14.03935257          0.44043414
     -14573.24326100      -3852.33786374       -617.03421240        -57.50121274
        863.44268538         45.98187623          9.47096237         77.82674002
          2.60751922      -2764.34237763      -3171.62689956       -837.23083693
         54.74890240        -29.48436597         47.01745486
 Traceless Quadrup. (au):
          4.34172060          8.22584985        -12.56757046          0.62299116
          5.64527894          1.38917413
 Charge=             -0.0000 electrons
 Dipole moment (field-independent basis, Debye):
    X=             -0.6880    Y=              0.7299    Z=              1.8630  Tot=              2.1159
 Quadrupole moment (field-independent basis, Debye-Ang):
   XX=            -91.9642   YY=            -86.7399   ZZ=           -114.7078
   XY=              0.8379   XZ=              7.5931   YZ=              1.8685
 Traceless Quadrupole moment (field-independent basis, Debye-Ang):
   XX=              5.8398   YY=             11.0640   ZZ=            -16.9038
   XY=              0.8379   XZ=              7.5931   YZ=              1.8685
 Octapole moment (field-independent basis, Debye-Ang**2):
  XXX=            -29.4905  YYY=             27.7267  ZZZ=              1.1071  XYY=              1.3064
  XXY=            -28.6850  XXZ=             25.7307  XZZ=              1.3880  YZZ=              9.0472
  YYZ=              9.9927  XYZ=              0.3135
 Hexadecapole moment (field-independent basis, Debye-Ang**3):
 XXXX=          -5488.9822 YYYY=          -1450.9752 ZZZZ=           -232.4047 XXXY=            -21.6577
 XXXZ=            325.2139 YYYX=             17.3190 YYYZ=              3.5672 ZZZX=             29.3133
 ZZZY=              0.9821 XXYY=          -1041.1839 XXZZ=          -1194.5868 YYZZ=           -315.3413
 XXYZ=             20.6211 YYXZ=            -11.1052 ZZXY=             17.7090
 N-N= 1.245164053392D+03 E-N=-4.356534849996D+03  KE= 7.961575326192D+02
 Entering OneElI...
 OneElI was handed  4294776054 working-precision words.
 Calculate electrostatic properties
    NBasis =   302  MinDer = 0  MaxDer = 0
    NGrid  =    34  NMatD  =   1
 Requested accuracy = 0.1000D-12
 PrtBox:  NBox=     1 Levels=  1 BoxLen=   29.89 SMaxX=       20.57
          Shift=           10.164775            5.382097            1.646872
 Box      1 Number                   0 centers from      1 to    104:
 ShPair: Thresh= 1.00D-13 NBox=     1 BxSize= 2.99D+01 RnKept= 1.76D+01
         NSMCal=                 5460 NSMKep=                3743
 PrmmSu-InSpLW:  IPartL=    0 NPrtUS=    8 NPrtUL=    1 DoSpLW=F IThBeg=    0 IThEnd=    7 NThAct=    8.
 PrSmSu:  IncTry=   512 NBBP=         127262 NTPThr=   100 NPartT=    8 Incr=         159 LDynOK=F GPUOK=F.
 PrsmSu:  NPrtUS=   8 ThrOK=T IAlg=2 LenDen=           0 ISkipM=0 DoSpLW=F IThBeg=    0 IThEnd=    7.
 Prism:   IPart=     0 DynPar=F LinDyn=F Incr=         159.
 PRISM was handed   536707427 working-precision words and  3743 shell-pairs
 PRISM was handed   536707427 working-precision words and  3743 shell-pairs
 PRISM was handed   536707427 working-precision words and  3743 shell-pairs
 PRISM was handed   536707427 working-precision words and  3743 shell-pairs
 PRISM was handed   536707427 working-precision words and  3743 shell-pairs
 PRISM was handed   536707427 working-precision words and  3743 shell-pairs
 PRISM was handed   536707427 working-precision words and  3743 shell-pairs
 PRISM was handed   536707427 working-precision words and  3743 shell-pairs
 IPart=  4 NShTot=       15776 NBatch=         464 AvBLen=        34.0
 PrsmSu-ThDecC:  IPartSL=    4    0 NPrtUSL=    8    1 IThBeg=    0 IThEnd=    7 CPU=   -1 GPU=   -1 NThAct=    8.
 IPart=  0 NShTot=       16456 NBatch=         484 AvBLen=        34.0
 PrsmSu-ThDecC:  IPartSL=    0    0 NPrtUSL=    8    1 IThBeg=    0 IThEnd=    7 CPU=   -1 GPU=   -1 NThAct=    7.
 IPart=  3 NShTot=       16014 NBatch=         471 AvBLen=        34.0
 PrsmSu-ThDecC:  IPartSL=    3    0 NPrtUSL=    8    1 IThBeg=    0 IThEnd=    7 CPU=   -1 GPU=   -1 NThAct=    6.
 IPart=  7 NShTot=       15266 NBatch=         449 AvBLen=        34.0
 PrsmSu-ThDecC:  IPartSL=    7    0 NPrtUSL=    8    1 IThBeg=    0 IThEnd=    7 CPU=   -1 GPU=   -1 NThAct=    5.
 IPart=  6 NShTot=       15538 NBatch=         457 AvBLen=        34.0
 PrsmSu-ThDecC:  IPartSL=    6    0 NPrtUSL=    8    1 IThBeg=    0 IThEnd=    7 CPU=   -1 GPU=   -1 NThAct=    4.
 IPart=  2 NShTot=       16184 NBatch=         476 AvBLen=        34.0
 PrsmSu-ThDecC:  IPartSL=    2    0 NPrtUSL=    8    1 IThBeg=    0 IThEnd=    7 CPU=   -1 GPU=   -1 NThAct=    3.
 IPart=  5 NShTot=       15640 NBatch=         460 AvBLen=        34.0
 PrsmSu-ThDecC:  IPartSL=    5    0 NPrtUSL=    8    1 IThBeg=    0 IThEnd=    7 CPU=   -1 GPU=   -1 NThAct=    2.
 IPart=  1 NShTot=       16388 NBatch=         482 AvBLen=        34.0
 PrsmSu-ThDecC:  IPartSL=    1    0 NPrtUSL=    8    1 IThBeg=    0 IThEnd=    7 CPU=   -1 GPU=   -1 NThAct=    1.
 PrSmSu:  NxtVal=           1273.
 --------------------------------------------------------
       Center         ----      EFG at Nuclei      ----
                      3XX-RR        3YY-RR        3ZZ-RR
 --------------------------------------------------------
     1   Atom        0.108566      0.106177     -0.214743
     2   Atom        0.092087      0.152518     -0.244605
     3   Atom        0.214720     -0.086773     -0.127947
     4   Atom        0.007190      0.256570     -0.263760
     5   Atom        0.160117      0.112706     -0.272823
     6   Atom        0.152022      0.066026     -0.218049
     7   Atom        0.092981      0.088970     -0.181950
     8   Atom        0.158314      0.060126     -0.218440
     9   Atom        0.178352      0.060447     -0.238798
    10   Atom        0.148257      0.021949     -0.170206
    11   Atom        0.186312     -0.094677     -0.091635
    12   Atom        0.016405      0.201960     -0.218365
    13   Atom       -0.559657     -0.409899      0.969556
    14   Atom        1.098628     -1.213642      0.115013
    15   Atom        0.183733     -0.160131     -0.023602
    16   Atom       -0.538208     -0.253567      0.791776
    17   Atom        0.029960     -0.183690      0.153730
    18   Atom        0.036716     -0.193476      0.156760
    19   Atom        0.051616     -0.138555      0.086940
    20   Atom        0.028999     -0.135346      0.106347
    21   Atom        0.036513     -0.138821      0.102308
    22   Atom        0.065572     -0.154356      0.088784
    23   Atom        0.047357     -0.244724      0.197367
    24   Atom        0.022839     -0.069868      0.047029
    25   Atom        0.049979      0.093711     -0.143690
    26   Atom       -0.191587      0.074094      0.117493
    27   Atom        0.065914     -0.035905     -0.030009
    28   Atom        0.055883     -0.281846      0.225963
    29   Atom        0.170612     -1.744487      1.573875
    30   Atom        0.109146     -0.276746      0.167601
    31   Atom        0.026643     -0.182108      0.155465
    32   Atom       -0.089610     -0.064072      0.153683
    33   Atom       -0.015897      0.102577     -0.086680
    34   Atom        0.035336      0.131312     -0.166648
 --------------------------------------------------------
                        XY            XZ            YZ
 --------------------------------------------------------
     1   Atom        0.033046     -0.017365      0.063239
     2   Atom       -0.015140     -0.020841      0.074211
     3   Atom       -0.220362     -0.060036      0.021240
     4   Atom        0.030582      0.009581      0.089910
     5   Atom       -0.020905     -0.021255      0.077478
     6   Atom        0.018556     -0.020690      0.045280
     7   Atom        0.001304     -0.014936     -0.153574
     8   Atom       -0.039659     -0.003376     -0.170025
     9   Atom        0.016056     -0.022493     -0.177597
    10   Atom       -0.016138     -0.012816     -0.101703
    11   Atom        0.189888     -0.110367      0.020098
    12   Atom       -0.017079      0.015017     -0.224758
    13   Atom        0.074146     -0.268806     -0.203711
    14   Atom        1.357370     -0.446305     -0.595686
    15   Atom        0.060971      0.050505     -0.296236
    16   Atom       -0.141797     -0.270469      0.490747
    17   Atom        0.187757      0.044566     -0.083517
    18   Atom       -0.188412     -0.029328     -0.062160
    19   Atom       -0.161496      0.083071      0.154024
    20   Atom        0.179497     -0.076844      0.133666
    21   Atom       -0.169656      0.079655      0.145544
    22   Atom       -0.171708     -0.125878     -0.225052
    23   Atom        0.219280     -0.080067      0.117320
    24   Atom        0.170606     -0.114701      0.136024
    25   Atom       -0.062783      0.172895      0.099495
    26   Atom       -0.144757     -0.096748     -0.054876
    27   Atom        0.135930     -0.166558      0.252240
    28   Atom       -0.226244     -0.026580     -0.003481
    29   Atom       -0.174768      0.056278     -0.676965
    30   Atom        0.224557      0.051409     -0.110507
    31   Atom        0.189527      0.039262     -0.072390
    32   Atom       -0.213577     -0.027212     -0.030902
    33   Atom        0.076734     -0.196989      0.080738
    34   Atom       -0.006682      0.191583      0.017294
 --------------------------------------------------------


 ---------------------------------------------------------------------------------
              Nuclear Quadrupole Coupling Constant in Principal Axis System
 ---------------------------------------------------------------------------------

       Atom             a.u.   MegaHertz   Gauss  10(-4) cm-1        Axes

              Baa    -0.6141     2.949     1.052     0.984  0.9670 -0.2150  0.1365
    13 N(14)  Bbb    -0.4326     2.078     0.741     0.693  0.1898  0.9658  0.1767
              Bcc     1.0467    -5.027    -1.794    -1.677 -0.1698 -0.1450  0.9748
 
              Baa    -0.6030     2.896     1.033     0.966  0.9623  0.2539  0.0973
    16 N(14)  Bbb    -0.4414     2.120     0.756     0.707 -0.1959  0.8956 -0.3994
              Bcc     1.0444    -5.016    -1.790    -1.673 -0.1885  0.3653  0.9116
 

 ---------------------------------------------------------------------------------

 No NMR shielding tensors so no spin-rotation constants.
 Leave Link  601 at Fri Nov 11 10:23:20 2022, MaxMem=  4294967296 cpu:               2.0 elap:               0.3
 FitSet:  NAtFit=    34 NAtPot=    34 NAtFrz=     0 MDM=    38 TotChg=   0.00000
 Merz-Kollman atomic radii used.
 Atom Element Radius
    1     6    1.50
    2     6    1.50
    3     6    1.50
    4     6    1.50
    5     6    1.50
    6     6    1.50
    7     6    1.50
    8     6    1.50
    9     6    1.50
   10     6    1.50
   11     6    1.50
   12     6    1.50
   13     7    1.50
   14     8    1.40
   15     6    1.50
   16     7    1.50
   17     1    1.20
   18     1    1.20
   19     1    1.20
   20     1    1.20
   21     1    1.20
   22     1    1.20
   23     1    1.20
   24     1    1.20
   25     1    1.20
   26     1    1.20
   27     1    1.20
   28     1    1.20
   29     8    1.40
   30     6    1.50
   31     1    1.20
   32     1    1.20
   33     1    1.20
   34     1    1.20
 Generate VDW surfaces: Layer= 4 Dens= 6 Start= 1.400 Inc= 0.200

 **********************************************************************

            Electrostatic Properties Using The SCF Density.

 **********************************************************************

       Atomic Center    1 is at   1.529294  0.462265  0.127023
       Atomic Center    2 is at   0.802093 -0.735638 -0.044494
       Atomic Center    3 is at   2.918441  0.479230  0.055986
       Atomic Center    4 is at   3.646481 -0.712535 -0.182450
       Atomic Center    5 is at   1.528051 -1.910766 -0.281406
       Atomic Center    6 is at   2.922800 -1.897445 -0.345423
       Atomic Center    7 is at  -0.679733 -0.739851  0.026906
       Atomic Center    8 is at  -1.438791  0.355271 -0.426035
       Atomic Center    9 is at  -1.388943 -1.839875  0.542225
       Atomic Center   10 is at  -2.780552 -1.852527  0.599530
       Atomic Center   11 is at  -2.827289  0.351215 -0.362360
       Atomic Center   12 is at  -3.533791 -0.755315  0.152782
       Atomic Center   13 is at   5.038137 -0.655845 -0.306640
       Atomic Center   14 is at  -3.559665  1.416316 -0.868112
       Atomic Center   15 is at  -3.738035  2.495777  0.059155
       Atomic Center   16 is at  -4.925449 -0.707478  0.247340
       Atomic Center   17 is at   0.993038  1.378478  0.345196
       Atomic Center   18 is at   1.003749 -2.848083 -0.442577
       Atomic Center   19 is at  -0.952879  1.218797 -0.871487
       Atomic Center   20 is at  -0.843138 -2.698479  0.922883
       Atomic Center   21 is at  -3.297128 -2.717931  1.008263
       Atomic Center   22 is at   5.449711  0.132327  0.180695
       Atomic Center   23 is at   5.507928 -1.521215 -0.064685
       Atomic Center   24 is at  -4.333932  3.252560 -0.455940
       Atomic Center   25 is at  -4.269539  2.161179  0.958355
       Atomic Center   26 is at  -2.772503  2.926950  0.350252
       Atomic Center   27 is at  -5.340973 -0.062810 -0.416656
       Atomic Center   28 is at  -5.378967 -1.613703  0.215975
       Atomic Center   29 is at   3.700561  1.594862  0.222607
       Atomic Center   30 is at   3.059319  2.831643  0.514560
       Atomic Center   31 is at   3.464758 -2.820702 -0.537492
       Atomic Center   32 is at   3.858327  3.568368  0.611053
       Atomic Center   33 is at   2.383039  3.131243 -0.295341
       Atomic Center   34 is at   2.496469  2.778166  1.454641
      ESP Fit Center   35 is at   1.529294  0.462265  2.227023
      ESP Fit Center   36 is at   1.938984  0.462265  2.186672
      ESP Fit Center   37 is at   1.734139  0.817067  2.186672
      ESP Fit Center   38 is at   1.324449  0.817067  2.186672
      ESP Fit Center   39 is at   1.119604  0.462265  2.186672
      ESP Fit Center   40 is at   1.324449  0.107463  2.186672
      ESP Fit Center   41 is at   1.734139  0.107463  2.186672
      ESP Fit Center   42 is at   2.225262  0.864083  2.067170
      ESP Fit Center   43 is at   1.931111  1.158234  2.067170
      ESP Fit Center   44 is at   1.529294  1.265900  2.067170
      ESP Fit Center   45 is at   1.127476  1.158234  2.067170
      ESP Fit Center   46 is at   0.833325  0.864083  2.067170
      ESP Fit Center   47 is at   0.725659  0.462265  2.067170
      ESP Fit Center   48 is at   0.833325  0.060447  2.067170
      ESP Fit Center   49 is at   1.127476 -0.233704  2.067170
      ESP Fit Center   50 is at   1.529294 -0.341370  2.067170
      ESP Fit Center   51 is at   1.931111 -0.233704  2.067170
      ESP Fit Center   52 is at   2.225262  0.060447  2.067170
      ESP Fit Center   53 is at   0.382462  0.676645  1.873109
      ESP Fit Center   54 is at   0.382462  0.247885  1.873109
      ESP Fit Center   55 is at   2.049336 -0.582120  1.873109
      ESP Fit Center   56 is at   0.044370  0.462265  1.611947
      ESP Fit Center   57 is at   2.146154 -0.888470  1.611947
      ESP Fit Center   58 is at   1.740621  1.932075 -1.357901
      ESP Fit Center   59 is at   1.317967  1.932075 -1.357901
      ESP Fit Center   60 is at   0.912434  1.813000 -1.357901
      ESP Fit Center   61 is at   2.049336  1.506650 -1.619063
      ESP Fit Center   62 is at   1.636943  1.623986 -1.619063
      ESP Fit Center   63 is at   1.210012  1.584425 -1.619063
      ESP Fit Center   64 is at   0.826202  1.393310 -1.619063
      ESP Fit Center   65 is at   1.931111  1.158234 -1.813124
      ESP Fit Center   66 is at   1.529294  1.265900 -1.813124
      ESP Fit Center   67 is at   1.127476  1.158234 -1.813124
      ESP Fit Center   68 is at   0.833325  0.864083 -1.813124
      ESP Fit Center   69 is at   0.725659  0.462265 -1.813124
      ESP Fit Center   70 is at   1.931111 -0.233704 -1.813124
      ESP Fit Center   71 is at   1.938984  0.462265 -1.932626
      ESP Fit Center   72 is at   1.734139  0.817067 -1.932626
      ESP Fit Center   73 is at   1.324449  0.817067 -1.932626
      ESP Fit Center   74 is at   1.119604  0.462265 -1.932626
      ESP Fit Center   75 is at   1.324449  0.107463 -1.932626
      ESP Fit Center   76 is at   1.734139  0.107463 -1.932626
      ESP Fit Center   77 is at   1.529294  0.462265 -1.972977
      ESP Fit Center   78 is at   0.802093 -0.735638  2.055506
      ESP Fit Center   79 is at   1.211783 -0.735638  2.015155
      ESP Fit Center   80 is at   1.006938 -0.380836  2.015155
      ESP Fit Center   81 is at   0.597248 -0.380836  2.015155
      ESP Fit Center   82 is at   0.392403 -0.735638  2.015155
      ESP Fit Center   83 is at   0.597248 -1.090440  2.015155
      ESP Fit Center   84 is at   1.006938 -1.090440  2.015155
      ESP Fit Center   85 is at   1.605728 -0.735638  1.895653
      ESP Fit Center   86 is at   0.400275 -0.039669  1.895653
      ESP Fit Center   87 is at   0.400275 -1.431607  1.895653
      ESP Fit Center   88 is at   0.802093 -1.539273  1.895653
      ESP Fit Center   89 is at   1.203911 -1.431607  1.895653
      ESP Fit Center   90 is at   1.498061 -1.137456  1.895653
      ESP Fit Center   91 is at   0.482811 -1.857798  1.701592
      ESP Fit Center   92 is at   1.890006 -1.157098  1.701592
      ESP Fit Center   93 is at   1.890006 -0.314178 -1.790580
      ESP Fit Center   94 is at   0.482811  0.386522 -1.790580
      ESP Fit Center   95 is at   1.498061 -0.333820 -1.984641
      ESP Fit Center   96 is at   1.203911 -0.039669 -1.984641
      ESP Fit Center   97 is at   0.802093  0.067997 -1.984641
      ESP Fit Center   98 is at   0.400275 -0.039669 -1.984641
      ESP Fit Center   99 is at   0.106124 -0.333820 -1.984641
      ESP Fit Center  100 is at  -0.001542 -0.735638 -1.984641
      ESP Fit Center  101 is at   0.106124 -1.137456 -1.984641
      ESP Fit Center  102 is at   1.211783 -0.735638 -2.104143
      ESP Fit Center  103 is at   1.006938 -0.380836 -2.104143
      ESP Fit Center  104 is at   0.597248 -0.380836 -2.104143
      ESP Fit Center  105 is at   0.392403 -0.735638 -2.104143
      ESP Fit Center  106 is at   0.597248 -1.090440 -2.104143
      ESP Fit Center  107 is at   0.802093 -0.735638 -2.144494
      ESP Fit Center  108 is at   2.918441  0.479230  2.155986
      ESP Fit Center  109 is at   3.328131  0.479230  2.115635
      ESP Fit Center  110 is at   3.123286  0.834032  2.115635
      ESP Fit Center  111 is at   2.713596  0.834032  2.115635
      ESP Fit Center  112 is at   2.508751  0.479230  2.115635
      ESP Fit Center  113 is at   2.713596  0.124428  2.115635
      ESP Fit Center  114 is at   3.123286  0.124428  2.115635
      ESP Fit Center  115 is at   3.722076  0.479230  1.996133
      ESP Fit Center  116 is at   2.516623  1.175199  1.996133
      ESP Fit Center  117 is at   2.516623 -0.216738  1.996133
      ESP Fit Center  118 is at   2.918441 -0.324405  1.996133
      ESP Fit Center  119 is at   3.320258 -0.216738  1.996133
      ESP Fit Center  120 is at   3.614409  0.077412  1.996133
      ESP Fit Center  121 is at   4.085138  0.479230  1.802072
      ESP Fit Center  122 is at   2.599159 -0.642930  1.802072
      ESP Fit Center  123 is at   4.006354  0.057770  1.802072
      ESP Fit Center  124 is at   2.301581  1.829965 -1.428938
      ESP Fit Center  125 is at   4.006354  0.900690 -1.690100
      ESP Fit Center  126 is at   3.026090  1.640951 -1.690100
      ESP Fit Center  127 is at   2.599159  1.601390 -1.690100
      ESP Fit Center  128 is at   2.215349  1.410275 -1.690100
      ESP Fit Center  129 is at   3.614409  0.881048 -1.884161
      ESP Fit Center  130 is at   3.320258  1.175199 -1.884161
      ESP Fit Center  131 is at   2.918441  1.282865 -1.884161
      ESP Fit Center  132 is at   2.516623  1.175199 -1.884161
      ESP Fit Center  133 is at   2.222472  0.881048 -1.884161
      ESP Fit Center  134 is at   2.222472  0.077412 -1.884161
      ESP Fit Center  135 is at   2.516623 -0.216738 -1.884161
      ESP Fit Center  136 is at   3.328131  0.479230 -2.003663
      ESP Fit Center  137 is at   3.123286  0.834032 -2.003663
      ESP Fit Center  138 is at   2.713596  0.834032 -2.003663
      ESP Fit Center  139 is at   2.508751  0.479230 -2.003663
      ESP Fit Center  140 is at   2.713596  0.124428 -2.003663
      ESP Fit Center  141 is at   2.918441  0.479230 -2.044014
      ESP Fit Center  142 is at   3.646481 -0.712535  1.917550
      ESP Fit Center  143 is at   4.056171 -0.712535  1.877199
      ESP Fit Center  144 is at   3.851326 -0.357733  1.877199
      ESP Fit Center  145 is at   3.236791 -0.712535  1.877199
      ESP Fit Center  146 is at   3.441636 -1.067337  1.877199
      ESP Fit Center  147 is at   3.851326 -1.067337  1.877199
      ESP Fit Center  148 is at   4.450116 -0.712535  1.757697
      ESP Fit Center  149 is at   4.342449 -0.310717  1.757697
      ESP Fit Center  150 is at   4.048299 -0.016566  1.757697
      ESP Fit Center  151 is at   2.950512 -1.114353  1.757697
      ESP Fit Center  152 is at   3.244663 -1.408503  1.757697
      ESP Fit Center  153 is at   3.646481 -1.516170  1.757697
      ESP Fit Center  154 is at   4.048299 -1.408503  1.757697
      ESP Fit Center  155 is at   4.342449 -1.114353  1.757697
      ESP Fit Center  156 is at   2.499649 -0.926915  1.563636
      ESP Fit Center  157 is at   4.166523 -1.756920  1.563636
      ESP Fit Center  158 is at   4.508681 -1.498534  1.563636
      ESP Fit Center  159 is at   4.263341 -2.063270  1.302474
      ESP Fit Center  160 is at   3.754130  0.449186 -1.928536
      ESP Fit Center  161 is at   2.499649 -0.498155 -1.928536
      ESP Fit Center  162 is at   4.048299 -0.016566 -2.122597
      ESP Fit Center  163 is at   3.646481  0.091100 -2.122597
      ESP Fit Center  164 is at   3.244663 -0.016566 -2.122597
      ESP Fit Center  165 is at   2.950512 -0.310717 -2.122597
      ESP Fit Center  166 is at   2.842846 -0.712535 -2.122597
      ESP Fit Center  167 is at   4.048299 -1.408503 -2.122597
      ESP Fit Center  168 is at   4.056171 -0.712535 -2.242099
      ESP Fit Center  169 is at   3.851326 -0.357733 -2.242099
      ESP Fit Center  170 is at   3.441636 -0.357733 -2.242099
      ESP Fit Center  171 is at   3.236791 -0.712535 -2.242099
      ESP Fit Center  172 is at   3.441636 -1.067337 -2.242099
      ESP Fit Center  173 is at   3.851326 -1.067337 -2.242099
      ESP Fit Center  174 is at   3.646481 -0.712535 -2.282450
      ESP Fit Center  175 is at   1.528051 -1.910766  1.818594
      ESP Fit Center  176 is at   1.937741 -1.910766  1.778243
      ESP Fit Center  177 is at   1.732896 -1.555964  1.778243
      ESP Fit Center  178 is at   1.118361 -1.910766  1.778243
      ESP Fit Center  179 is at   1.323206 -2.265568  1.778243
      ESP Fit Center  180 is at   1.732896 -2.265568  1.778243
      ESP Fit Center  181 is at   2.224019 -1.508948  1.658741
      ESP Fit Center  182 is at   0.832082 -2.312584  1.658741
      ESP Fit Center  183 is at   1.126233 -2.606735  1.658741
      ESP Fit Center  184 is at   1.528051 -2.714401  1.658741
      ESP Fit Center  185 is at   1.929869 -2.606735  1.658741
      ESP Fit Center  186 is at   2.224019 -2.312584  1.658741
      ESP Fit Center  187 is at   0.824959 -2.841811  1.464680
      ESP Fit Center  188 is at   1.208769 -3.032926  1.464680
      ESP Fit Center  189 is at   1.635700 -3.072487  1.464680
      ESP Fit Center  190 is at   2.048093 -2.955151  1.464680
      ESP Fit Center  191 is at   0.911191 -3.261501  1.203518
      ESP Fit Center  192 is at   1.316724 -3.380576  1.203518
      ESP Fit Center  193 is at   1.739378 -3.380576  1.203518
      ESP Fit Center  194 is at   2.144911 -3.261501  1.203518
      ESP Fit Center  195 is at   1.738518 -3.644121  0.885292
      ESP Fit Center  196 is at   2.147222 -3.543385  0.885292
      ESP Fit Center  197 is at   2.047095 -3.780195  0.522229
      ESP Fit Center  198 is at   2.243378 -3.842206  0.128284
      ESP Fit Center  199 is at   2.144911 -0.560031 -1.766330
      ESP Fit Center  200 is at   0.043127 -1.910766 -1.766330
      ESP Fit Center  201 is at   0.103277 -2.329117 -1.766330
      ESP Fit Center  202 is at   2.144911 -3.261501 -1.766330
      ESP Fit Center  203 is at   2.048093 -0.866381 -2.027492
      ESP Fit Center  204 is at   1.635700 -0.749045 -2.027492
      ESP Fit Center  205 is at   0.381219 -1.696386 -2.027492
      ESP Fit Center  206 is at   0.381219 -2.125146 -2.027492
      ESP Fit Center  207 is at   0.536105 -2.524953 -2.027492
      ESP Fit Center  208 is at   1.635700 -3.072487 -2.027492
      ESP Fit Center  209 is at   2.048093 -2.955151 -2.027492
      ESP Fit Center  210 is at   1.929869 -1.214797 -2.221553
      ESP Fit Center  211 is at   1.528051 -1.107131 -2.221553
      ESP Fit Center  212 is at   1.126233 -1.214797 -2.221553
      ESP Fit Center  213 is at   0.832082 -1.508948 -2.221553
      ESP Fit Center  214 is at   0.724416 -1.910766 -2.221553
      ESP Fit Center  215 is at   0.832082 -2.312584 -2.221553
      ESP Fit Center  216 is at   1.126233 -2.606735 -2.221553
      ESP Fit Center  217 is at   1.528051 -2.714401 -2.221553
      ESP Fit Center  218 is at   1.929869 -2.606735 -2.221553
      ESP Fit Center  219 is at   1.937741 -1.910766 -2.341055
      ESP Fit Center  220 is at   1.732896 -1.555964 -2.341055
      ESP Fit Center  221 is at   1.323206 -1.555964 -2.341055
      ESP Fit Center  222 is at   1.118361 -1.910766 -2.341055
      ESP Fit Center  223 is at   1.323206 -2.265568 -2.341055
      ESP Fit Center  224 is at   1.732896 -2.265568 -2.341055
      ESP Fit Center  225 is at   1.528051 -1.910766 -2.381406
      ESP Fit Center  226 is at   2.922800 -1.897445  1.754577
      ESP Fit Center  227 is at   3.332490 -1.897445  1.714226
      ESP Fit Center  228 is at   3.127645 -1.542643  1.714226
      ESP Fit Center  229 is at   2.717955 -1.542643  1.714226
      ESP Fit Center  230 is at   2.513110 -1.897445  1.714226
      ESP Fit Center  231 is at   2.717955 -2.252247  1.714226
      ESP Fit Center  232 is at   3.127645 -2.252247  1.714226
      ESP Fit Center  233 is at   3.726435 -1.897445  1.594724
      ESP Fit Center  234 is at   2.520982 -1.201476  1.594724
      ESP Fit Center  235 is at   2.520982 -2.593413  1.594724
      ESP Fit Center  236 is at   2.922800 -2.701080  1.594724
      ESP Fit Center  237 is at   3.324618 -2.593413  1.594724
      ESP Fit Center  238 is at   3.618768 -2.299263  1.594724
      ESP Fit Center  239 is at   2.603518 -3.019605  1.400663
      ESP Fit Center  240 is at   3.030449 -3.059166  1.400663
      ESP Fit Center  241 is at   3.442842 -2.941830  1.400663
      ESP Fit Center  242 is at   3.785000 -2.683444  1.400663
      ESP Fit Center  243 is at   4.010713 -2.318905  1.400663
      ESP Fit Center  244 is at   2.305940 -3.248180  1.139501
      ESP Fit Center  245 is at   2.711473 -3.367255  1.139501
      ESP Fit Center  246 is at   3.134127 -3.367255  1.139501
      ESP Fit Center  247 is at   3.539660 -3.248180  1.139501
      ESP Fit Center  248 is at   3.895218 -3.019676  1.139501
      ESP Fit Center  249 is at   4.171998 -2.700256  1.139501
      ESP Fit Center  250 is at   4.347574 -2.315796  1.139501
      ESP Fit Center  251 is at   2.303629 -3.530064  0.821275
      ESP Fit Center  252 is at   2.712332 -3.630800  0.821275
      ESP Fit Center  253 is at   4.468882 -2.708892  0.821275
      ESP Fit Center  254 is at   2.305940 -0.546710 -1.830347
      ESP Fit Center  255 is at   2.305940 -3.248180 -1.830347
      ESP Fit Center  256 is at   4.089497 -1.897445 -2.091509
      ESP Fit Center  257 is at   2.603518 -0.775285 -2.091509
      ESP Fit Center  258 is at   2.219708 -0.966400 -2.091509
      ESP Fit Center  259 is at   2.219708 -2.828490 -2.091509
      ESP Fit Center  260 is at   2.603518 -3.019605 -2.091509
      ESP Fit Center  261 is at   4.010713 -2.318905 -2.091509
      ESP Fit Center  262 is at   3.726435 -1.897445 -2.285570
      ESP Fit Center  263 is at   3.618768 -1.495627 -2.285570
      ESP Fit Center  264 is at   3.324618 -1.201476 -2.285570
      ESP Fit Center  265 is at   2.922800 -1.093810 -2.285570
      ESP Fit Center  266 is at   2.520982 -1.201476 -2.285570
      ESP Fit Center  267 is at   2.226831 -1.495627 -2.285570
      ESP Fit Center  268 is at   2.226831 -2.299263 -2.285570
      ESP Fit Center  269 is at   2.520982 -2.593413 -2.285570
      ESP Fit Center  270 is at   2.922800 -2.701080 -2.285570
      ESP Fit Center  271 is at   3.324618 -2.593413 -2.285570
      ESP Fit Center  272 is at   3.618768 -2.299263 -2.285570
      ESP Fit Center  273 is at   3.332490 -1.897445 -2.405072
      ESP Fit Center  274 is at   3.127645 -1.542643 -2.405072
      ESP Fit Center  275 is at   2.717955 -1.542643 -2.405072
      ESP Fit Center  276 is at   2.513110 -1.897445 -2.405072
      ESP Fit Center  277 is at   2.717955 -2.252247 -2.405072
      ESP Fit Center  278 is at   3.127645 -2.252247 -2.405072
      ESP Fit Center  279 is at   2.922800 -1.897445 -2.445423
      ESP Fit Center  280 is at  -0.270043 -0.739851  2.086555
      ESP Fit Center  281 is at  -0.474888 -0.385049  2.086555
      ESP Fit Center  282 is at  -0.884578 -0.385049  2.086555
      ESP Fit Center  283 is at   0.123902 -0.739851  1.967053
      ESP Fit Center  284 is at   0.016235 -0.338033  1.967053
      ESP Fit Center  285 is at  -0.277915 -0.043883  1.967053
      ESP Fit Center  286 is at  -0.679733  0.063784  1.967053
      ESP Fit Center  287 is at  -1.081551 -0.043883  1.967053
      ESP Fit Center  288 is at   0.016235 -1.141669  1.967053
      ESP Fit Center  289 is at  -0.159691  0.304534  1.772992
      ESP Fit Center  290 is at  -0.572084  0.421870  1.772992
      ESP Fit Center  291 is at  -0.999015  0.382309  1.772992
      ESP Fit Center  292 is at  -1.382825  0.191194  1.772992
      ESP Fit Center  293 is at  -1.671679 -0.125664  1.772992
      ESP Fit Center  294 is at  -0.062873  0.610884  1.511830
      ESP Fit Center  295 is at  -0.468406  0.729959  1.511830
      ESP Fit Center  296 is at  -0.468406 -2.209661 -1.458018
      ESP Fit Center  297 is at  -1.671679 -1.354038 -1.719180
      ESP Fit Center  298 is at  -1.382825 -1.670896 -1.719180
      ESP Fit Center  299 is at  -0.999015 -1.862011 -1.719180
      ESP Fit Center  300 is at  -0.572084 -1.901572 -1.719180
      ESP Fit Center  301 is at  -0.159691 -1.784236 -1.719180
      ESP Fit Center  302 is at  -1.375702 -1.141669 -1.913241
[...]
 8285 Fit       0.006028
 8286 Fit       0.007042
 8287 Fit       0.007863
 8288 Fit       0.008569
 8289 Fit       0.009243
 8290 Fit       0.009989
 8291 Fit       0.010937
 8292 Fit       0.004534
 8293 Fit       0.006421
 8294 Fit       0.007798
 8295 Fit       0.008852
 8296 Fit       0.009723
 8297 Fit       0.010538
 8298 Fit       0.011421
 8299 Fit       0.001660
 8300 Fit       0.004757
 8301 Fit       0.006866
 8302 Fit       0.008364
 8303 Fit       0.009482
 8304 Fit       0.010385
 8305 Fit       0.011200
 8306 Fit       0.012029
 8307 Fit       0.000897
 8308 Fit       0.004467
 8309 Fit       0.006817
 8310 Fit       0.008414
 8311 Fit       0.009535
 8312 Fit       0.010355
 8313 Fit       0.010975
 8314 Fit       0.000666
 8315 Fit       0.004260
 8316 Fit       0.006557
 8317 Fit       0.008011
 8318 Fit       0.008878
 8319 Fit       0.009273
 8320 Fit      -0.002429
 8321 Fit       0.002116
 8322 Fit       0.004871
 8323 Fit       0.006382
 8324 Fit       0.006942
 8325 Fit       0.006616
 8326 Fit      -0.003449
 8327 Fit       0.001234
 8328 Fit       0.003566
 8329 Fit       0.003981
 8330 Fit       0.002637
 8331 Fit      -0.004028
 8332 Fit       0.000016
 8333 Fit      -0.000404
 8334 Fit      -0.004465
 8335 Fit      -0.004302
 8336 Fit       0.004085
 8337 Fit       0.003038
 8338 Fit       0.005567
 8339 Fit       0.007374
 8340 Fit       0.008631
 8341 Fit       0.009529
 8342 Fit       0.005400
 8343 Fit       0.007708
 8344 Fit       0.009453
 8345 Fit       0.010762
 8346 Fit       0.011786
 8347 Fit       0.012758
 8348 Fit       0.007516
 8349 Fit       0.009511
 8350 Fit       0.011078
 8351 Fit       0.012292
 8352 Fit       0.013239
 8353 Fit       0.014047
 8354 Fit       0.014942
 8355 Fit       0.007461
 8356 Fit       0.009552
 8357 Fit       0.011257
 8358 Fit       0.012619
 8359 Fit       0.013680
 8360 Fit       0.014491
 8361 Fit       0.015133
 8362 Fit       0.015743
 8363 Fit       0.009588
 8364 Fit       0.011237
 8365 Fit       0.012626
 8366 Fit       0.013758
 8367 Fit       0.014642
 8368 Fit       0.015299
 8369 Fit       0.015765
 8370 Fit       0.016104
 8371 Fit       0.016434
 8372 Fit       0.012015
 8373 Fit       0.013186
 8374 Fit       0.014182
 8375 Fit       0.014979
 8376 Fit       0.015568
 8377 Fit       0.015950
 8378 Fit       0.016138
 8379 Fit       0.016160
 8380 Fit       0.016062
 8381 Fit       0.012787
 8382 Fit       0.013683
 8383 Fit       0.014502
 8384 Fit       0.015175
 8385 Fit       0.015660
 8386 Fit       0.015930
 8387 Fit       0.015968
 8388 Fit       0.015762
 8389 Fit       0.015289
 8390 Fit       0.014492
 8391 Fit       0.013747
 8392 Fit       0.014319
 8393 Fit       0.014879
 8394 Fit       0.015318
 8395 Fit       0.015564
 8396 Fit       0.015565
 8397 Fit       0.015276
 8398 Fit       0.014640
 8399 Fit       0.013560
 8400 Fit       0.011835
 8401 Fit       0.014199
 8402 Fit       0.014463
 8403 Fit       0.014763
 8404 Fit       0.014953
 8405 Fit       0.014935
 8406 Fit       0.014628
 8407 Fit       0.013955
 8408 Fit       0.012809
 8409 Fit       0.011019
 8410 Fit       0.014101
 8411 Fit       0.014144
 8412 Fit       0.014025
 8413 Fit       0.013600
 8414 Fit       0.012744
 8415 Fit       0.011312
 8416 Fit       0.009100
 8417 Fit       0.005808
 8418 Fit       0.013147
 8419 Fit       0.012895
 8420 Fit       0.012365
 8421 Fit       0.011365
 8422 Fit       0.009707
 8423 Fit       0.007184
 8424 Fit       0.011221
 8425 Fit       0.010279
 8426 Fit       0.008633
 8427 Fit      -0.004674
 8428 Fit      -0.003334
 8429 Fit      -0.006009
 8430 Fit      -0.004648
 8431 Fit      -0.003056
 8432 Fit      -0.006350
 8433 Fit      -0.004724
 8434 Fit      -0.003751
 8435 Fit      -0.002199
 8436 Fit      -0.001830
 8437 Fit      -0.003503
 8438 Fit      -0.002324
 8439 Fit      -0.002108
 8440 Fit      -0.000727
 8441 Fit      -0.001225
 8442 Fit      -0.000291
 8443 Fit      -0.000420
 8444 Fit       0.000792
 8445 Fit      -0.000221
 8446 Fit      -0.000239
 8447 Fit      -0.000864
 8448 Fit      -0.000879
 8449 Fit      -0.002269
 8450 Fit      -0.002409
 8451 Fit      -0.004597
 8452 Fit      -0.004503
 8453 Fit      -0.007679
 8454 Fit      -0.007019
 8455 Fit      -0.011136
 8456 Fit      -0.009806
 8457 Fit      -0.007583
 8458 Fit      -0.014394
 8459 Fit      -0.012273
 8460 Fit      -0.009661
 8461 Fit      -0.019867
 8462 Fit      -0.016953
 8463 Fit      -0.014155
 8464 Fit      -0.011181
 8465 Fit      -0.022258
 8466 Fit      -0.018708
 8467 Fit      -0.015497
 8468 Fit      -0.012335
 8469 Fit      -0.023251
 8470 Fit      -0.019392
 8471 Fit      -0.015932
 8472 Fit      -0.027708
 8473 Fit      -0.022967
 8474 Fit      -0.018943
 8475 Fit      -0.015374
 8476 Fit      -0.026358
 8477 Fit      -0.021832
 8478 Fit      -0.017874
 8479 Fit      -0.014914
 8480 Fit      -0.013681
 8481 Fit      -0.024529
 8482 Fit      -0.020234
 8483 Fit      -0.018225
 8484 Fit       0.003410
 8485 Fit       0.005066
 8486 Fit       0.006580
 8487 Fit       0.007874
 8488 Fit       0.000416
 8489 Fit       0.001779
 8490 Fit       0.002814
 8491 Fit       0.004598
 8492 Fit       0.006210
 8493 Fit       0.007566
 8494 Fit       0.008655
 8495 Fit       0.009552
 8496 Fit      -0.003136
 8497 Fit      -0.002202
 8498 Fit      -0.000762
 8499 Fit       0.000978
 8500 Fit       0.002361
 8501 Fit       0.004212
 8502 Fit       0.005910
 8503 Fit       0.009391
 8504 Fit       0.010067
 8505 Fit       0.010657
 8506 Fit      -0.001478
 8507 Fit       0.000439
 8508 Fit       0.002004
 8509 Fit       0.010907
 8510 Fit       0.011304
 8511 Fit       0.011724
 8512 Fit       0.012184
 8513 Fit      -0.000081
 8514 Fit       0.001683
 8515 Fit       0.011882
 8516 Fit       0.012158
 8517 Fit       0.012503
 8518 Fit       0.012891
 8519 Fit      -0.000471
 8520 Fit       0.012366
 8521 Fit       0.012555
 8522 Fit       0.012836
 8523 Fit       0.013175
 8524 Fit       0.013534
 8525 Fit       0.012628
 8526 Fit       0.012777
 8527 Fit       0.013031
 8528 Fit       0.013349
 8529 Fit       0.013700
 8530 Fit       0.014064
 8531 Fit       0.014432
 8532 Fit       0.012684
 8533 Fit       0.012876
 8534 Fit       0.013167
 8535 Fit       0.013517
 8536 Fit       0.013903
 8537 Fit       0.014319
 8538 Fit       0.014775
 8539 Fit       0.015284
 8540 Fit       0.015857
 8541 Fit       0.012468
 8542 Fit       0.012697
 8543 Fit       0.013035
 8544 Fit       0.013442
 8545 Fit       0.013895
 8546 Fit       0.014393
 8547 Fit       0.014957
 8548 Fit       0.015626
 8549 Fit       0.016459
 8550 Fit       0.012033
 8551 Fit       0.012338
 8552 Fit       0.012754
 8553 Fit       0.013242
 8554 Fit       0.013779
 8555 Fit       0.011124
 8556 Fit       0.011403
 8557 Fit       0.011817
 8558 Fit       0.012335
 8559 Fit       0.010382
 8560 Fit       0.010898
 8561 Fit       0.008622
 8562 Fit       0.009222
 8563 Fit       0.009918
 8564 Fit      -0.008556
 8565 Fit       0.006992
 8566 Fit       0.007836
 8567 Fit      -0.009575
 8568 Fit      -0.005241
 8569 Fit      -0.001871
 8570 Fit       0.000698
 8571 Fit       0.002633
 8572 Fit       0.004120
 8573 Fit       0.005350
 8574 Fit      -0.009980
 8575 Fit      -0.005762
 8576 Fit      -0.002490
 8577 Fit       0.000020
 8578 Fit       0.001969
 8579 Fit       0.003561
 8580 Fit      -0.009435
 8581 Fit      -0.005286
 8582 Fit      -0.002095
 8583 Fit       0.000361
 8584 Fit      -0.013286
 8585 Fit      -0.008560
 8586 Fit      -0.004679
 8587 Fit      -0.001674
 8588 Fit      -0.011476
 8589 Fit      -0.007024
 8590 Fit      -0.009373
 8591 Fit      -0.011744
 8592 Fit       0.001863
 8593 Fit       0.003518
 8594 Fit       0.005385
 8595 Fit       0.007672
 8596 Fit       0.000843
 8597 Fit       0.002111
 8598 Fit       0.003399
 8599 Fit       0.004810
 8600 Fit       0.006493
 8601 Fit       0.008697
 8602 Fit       0.011818
 8603 Fit       0.002625
 8604 Fit       0.003501
 8605 Fit       0.004495
 8606 Fit       0.005643
 8607 Fit       0.007036
 8608 Fit       0.008861
 8609 Fit       0.011459
 8610 Fit       0.003295
 8611 Fit       0.003533
 8612 Fit       0.004068
 8613 Fit       0.004799
 8614 Fit       0.005690
 8615 Fit       0.006768
 8616 Fit       0.008133
 8617 Fit       0.009997
 8618 Fit       0.012770
 8619 Fit       0.004182
 8620 Fit       0.004393
 8621 Fit       0.004879
 8622 Fit       0.005542
 8623 Fit       0.006353
 8624 Fit       0.007341
 8625 Fit       0.008608
 8626 Fit       0.010357
 8627 Fit       0.012981
 8628 Fit       0.004523
 8629 Fit       0.004347
 8630 Fit       0.004579
 8631 Fit       0.005037
 8632 Fit       0.005635
 8633 Fit       0.006346
 8634 Fit       0.007193
 8635 Fit       0.008254
 8636 Fit       0.009685
 8637 Fit       0.011776
 8638 Fit       0.003895
 8639 Fit       0.004089
 8640 Fit       0.004502
 8641 Fit       0.005030
 8642 Fit       0.005631
 8643 Fit       0.006303
 8644 Fit       0.007084
 8645 Fit       0.008058
 8646 Fit       0.009371
 8647 Fit       0.002755
 8648 Fit       0.002995
 8649 Fit       0.003420
 8650 Fit       0.003927
 8651 Fit       0.004456
 8652 Fit       0.004981
 8653 Fit       0.005501
 8654 Fit       0.006031
 8655 Fit       0.006590
 8656 Fit       0.007154
 8657 Fit       0.001209
 8658 Fit       0.001821
 8659 Fit       0.002407
 8660 Fit       0.002935
 8661 Fit       0.003375
 8662 Fit       0.003700
 8663 Fit       0.003877
 8664 Fit       0.003837
 8665 Fit       0.003410
 8666 Fit      -0.001119
 8667 Fit      -0.000086
 8668 Fit       0.000702
 8669 Fit       0.001273
 8670 Fit       0.001607
 8671 Fit       0.001650
 8672 Fit       0.001295
 8673 Fit       0.000319
 8674 Fit      -0.001747
 8675 Fit      -0.004099
 8676 Fit      -0.002501
 8677 Fit      -0.001450
 8678 Fit      -0.000844
 8679 Fit      -0.000695
 8680 Fit      -0.001099
 8681 Fit      -0.002274
 8682 Fit      -0.004622
 8683 Fit      -0.010690
 8684 Fit      -0.006044
 8685 Fit      -0.004360
 8686 Fit      -0.003528
 8687 Fit      -0.003522
 8688 Fit      -0.004488
 8689 Fit      -0.006744
 8690 Fit      -0.006919
 8691 Fit      -0.006759
 8692 Fit      -0.008423
 8693 Fit       0.007266
 8694 Fit       0.008452
 8695 Fit       0.005430
 8696 Fit       0.006770
 8697 Fit       0.007902
 8698 Fit       0.008858
 8699 Fit       0.009705
 8700 Fit       0.005095
 8701 Fit       0.006441
 8702 Fit       0.007572
 8703 Fit       0.008523
 8704 Fit       0.009335
 8705 Fit       0.010068
 8706 Fit       0.010805
 8707 Fit       0.003482
 8708 Fit       0.004785
 8709 Fit       0.006148
 8710 Fit       0.007297
 8711 Fit       0.008268
 8712 Fit       0.009091
 8713 Fit       0.009804
 8714 Fit       0.010465
 8715 Fit       0.011147
 8716 Fit       0.011944
 8717 Fit       0.003139
 8718 Fit       0.004410
 8719 Fit       0.005764
 8720 Fit       0.006921
 8721 Fit       0.007909
 8722 Fit       0.008750
 8723 Fit       0.009470
 8724 Fit       0.010105
 8725 Fit       0.010706
 8726 Fit       0.011337
 8727 Fit       0.012080
 8728 Fit       0.000762
 8729 Fit       0.002797
 8730 Fit       0.003881
 8731 Fit       0.005304
 8732 Fit       0.006527
 8733 Fit       0.007572
 8734 Fit       0.008460
 8735 Fit       0.009214
 8736 Fit       0.009866
 8737 Fit       0.010462
 8738 Fit       0.011057
 8739 Fit       0.011726
 8740 Fit       0.012557
 8741 Fit       0.002208
 8742 Fit       0.003123
 8743 Fit       0.004634
 8744 Fit       0.005933
 8745 Fit       0.007043
 8746 Fit       0.007983
 8747 Fit       0.008778
 8748 Fit       0.009458
 8749 Fit       0.010061
 8750 Fit       0.010636
 8751 Fit       0.011247
 8752 Fit       0.011969
 8753 Fit       0.001360
 8754 Fit       0.002084
 8755 Fit       0.003764
 8756 Fit       0.005188
 8757 Fit       0.006390
 8758 Fit       0.007401
 8759 Fit       0.008250
 8760 Fit       0.008969
 8761 Fit       0.009597
 8762 Fit       0.010182
 8763 Fit       0.010782
 8764 Fit       0.011470
 8765 Fit       0.000094
 8766 Fit       0.000763
 8767 Fit       0.002748
 8768 Fit       0.004378
 8769 Fit       0.005722
 8770 Fit       0.006831
 8771 Fit       0.007748
 8772 Fit       0.008516
 8773 Fit       0.009185
 8774 Fit       0.009811
 8775 Fit       0.010464
 8776 Fit       0.011227
 8777 Fit      -0.001691
 8778 Fit      -0.000779
 8779 Fit       0.001606
 8780 Fit       0.003489
 8781 Fit       0.004996
 8782 Fit       0.006211
 8783 Fit       0.007200
 8784 Fit       0.008023
 8785 Fit       0.008744
 8786 Fit       0.009437
 8787 Fit       0.010192
 8788 Fit      -0.003884
 8789 Fit      -0.002406
 8790 Fit       0.000364
 8791 Fit       0.002484
 8792 Fit       0.004140
 8793 Fit       0.005451
 8794 Fit       0.006506
 8795 Fit       0.007383
 8796 Fit       0.008163
 8797 Fit       0.008940
 8798 Fit      -0.006154
 8799 Fit      -0.003926
 8800 Fit      -0.000693
 8801 Fit       0.001700
 8802 Fit       0.003513
 8803 Fit       0.004914
 8804 Fit       0.006030
 8805 Fit       0.006978
 8806 Fit       0.007883
 8807 Fit      -0.005122
 8808 Fit      -0.001575
 8809 Fit       0.001000
 8810 Fit       0.002909
 8811 Fit       0.004364
 8812 Fit       0.005536
 8813 Fit       0.000663
 8814 Fit       0.002608
 8815 Fit       0.013671
 8816 Fit       0.014007
 8817 Fit       0.014537
 8818 Fit       0.015327
 8819 Fit       0.016466
 8820 Fit       0.012314
 8821 Fit       0.012549
 8822 Fit       0.012875
 8823 Fit       0.013329
 8824 Fit       0.013967
 8825 Fit       0.014872
 8826 Fit       0.016189
 8827 Fit       0.010737
 8828 Fit       0.010994
 8829 Fit       0.011273
 8830 Fit       0.011581
 8831 Fit       0.011939
 8832 Fit       0.012386
 8833 Fit       0.012988
 8834 Fit       0.013866
 8835 Fit       0.009224
 8836 Fit       0.009635
 8837 Fit       0.010001
 8838 Fit       0.010333
 8839 Fit       0.010645
 8840 Fit       0.010965
 8841 Fit       0.011343
 8842 Fit       0.011878
 8843 Fit       0.012752
 8844 Fit       0.006788
 8845 Fit       0.007543
 8846 Fit       0.008141
 8847 Fit       0.008617
 8848 Fit       0.008989
 8849 Fit       0.009268
 8850 Fit       0.009468
 8851 Fit       0.009614
 8852 Fit       0.009754
 8853 Fit       0.009953
 8854 Fit       0.005017
 8855 Fit       0.006049
 8856 Fit       0.006814
 8857 Fit       0.007363
 8858 Fit       0.007719
 8859 Fit       0.007891
 8860 Fit       0.007880
 8861 Fit       0.007685
 8862 Fit       0.007266
 8863 Fit       0.006376
 8864 Fit       0.001386
 8865 Fit       0.003187
 8866 Fit       0.004485
 8867 Fit       0.005392
 8868 Fit       0.005969
 8869 Fit       0.006236
 8870 Fit       0.006186
 8871 Fit       0.005785
 8872 Fit       0.004936
 8873 Fit       0.003363
 8874 Fit       0.000544
 8875 Fit      -0.003528
 8876 Fit      -0.000606
 8877 Fit       0.001565
 8878 Fit       0.003074
 8879 Fit       0.004015
 8880 Fit       0.004436
 8881 Fit       0.004328
 8882 Fit       0.003618
 8883 Fit       0.002138
 8884 Fit      -0.000391
 8885 Fit      -0.004048
 8886 Fit      -0.005548
 8887 Fit      -0.002333
 8888 Fit       0.000225
 8889 Fit       0.001825
 8890 Fit       0.002436
 8891 Fit       0.002002
 8892 Fit       0.000385
 8893 Fit      -0.002483
 8894 Fit      -0.005978
 8895 Fit      -0.008687
 8896 Fit      -0.009615
 8897 Fit      -0.008422
 8898 Fit      -0.004046
 8899 Fit      -0.001147
 8900 Fit       0.000117
 8901 Fit      -0.001151
 8902 Fit      -0.004180
 8903 Fit      -0.005802
 8904 Fit      -0.002597
 8905 Fit       0.005450
 8906 Fit       0.005089
 8907 Fit       0.006393
 8908 Fit       0.006742
 8909 Fit       0.005761
 8910 Fit       0.004303
 8911 Fit       0.003999
 8912 Fit       0.004671
 8913 Fit       0.006087
 8914 Fit       0.007214
 8915 Fit       0.007854
 8916 Fit       0.007910
 8917 Fit       0.007306
 8918 Fit       0.006040
 8919 Fit       0.004365
 8920 Fit       0.002865
 8921 Fit       0.002133
 8922 Fit       0.002345
 8923 Fit       0.003298
 8924 Fit       0.004198
 8925 Fit       0.005692
 8926 Fit       0.006994
 8927 Fit       0.007996
 8928 Fit       0.008664
 8929 Fit       0.008998
 8930 Fit       0.008984
 8931 Fit       0.008575
 8932 Fit       0.007701
 8933 Fit       0.006327
 8934 Fit       0.004546
 8935 Fit       0.002639
 8936 Fit       0.001030
 8937 Fit       0.000092
 8938 Fit      -0.000062
 8939 Fit       0.000427
 8940 Fit       0.001386
 8941 Fit       0.002695
 8942 Fit       0.008079
 8943 Fit       0.008962
 8944 Fit       0.009559
 8945 Fit       0.009912
 8946 Fit       0.010039
 8947 Fit       0.009924
 8948 Fit       0.009518
 8949 Fit       0.008737
 8950 Fit       0.007495
 8951 Fit       0.005760
 8952 Fit       0.003616
 8953 Fit       0.001310
 8954 Fit      -0.000772
 8955 Fit      -0.002219
 8956 Fit      -0.002813
 8957 Fit      -0.002647
 8958 Fit      -0.001987
 8959 Fit      -0.000998
 8960 Fit       0.000315
 8961 Fit       0.010613
 8962 Fit       0.010882
 8963 Fit       0.010998
 8964 Fit       0.010960
 8965 Fit       0.010736
 8966 Fit       0.010256
 8967 Fit       0.009415
 8968 Fit       0.008094
 8969 Fit       0.006210
 8970 Fit       0.003773
 8971 Fit       0.000935
 8972 Fit      -0.001974
 8973 Fit      -0.006394
 8974 Fit      -0.005080
 8975 Fit       0.011910
 8976 Fit       0.011967
 8977 Fit       0.011945
 8978 Fit       0.011826
 8979 Fit       0.011569
 8980 Fit       0.011093
 8981 Fit       0.010275
 8982 Fit       0.008968
 8983 Fit       0.007045
 8984 Fit       0.004436
 8985 Fit       0.012970
 8986 Fit       0.012889
 8987 Fit       0.012770
 8988 Fit       0.012569
 8989 Fit       0.012200
 8990 Fit       0.011515
 8991 Fit       0.010328
 8992 Fit       0.013868
 8993 Fit       0.013776
 8994 Fit       0.013681
 8995 Fit       0.013502
 8996 Fit       0.013098
 8997 Fit       0.014952
 8998 Fit       0.015034
 -----------------------------------------------------------------
 Leave Link  602 at Fri Nov 11 10:23:21 2022, MaxMem=  4294967296 cpu:               5.0 elap:               0.7

 Test job not archived.
 1\1\GINC-NODE10\SP\RHF\6-31G(d)\C14H16N2O2\GOST\11-Nov-2022\0\\# HF 6-
 31G(d) scf=nosymm test pop=MK iop(6/33=2) iop(6/42=6) geom=distance\\c
 onformer 2 ESP\\0,1\C,0,1.529294,0.462265,0.127023\C,0,0.802093,-0.735
 638,-0.044494\C,0,2.918441,0.47923,0.055986\C,0,3.646481,-0.712535,-0.
 18245\C,0,1.528051,-1.910766,-0.281406\C,0,2.9228,-1.897445,-0.345423\
 C,0,-0.679733,-0.739851,0.026906\C,0,-1.438791,0.355271,-0.426035\C,0,
 -1.388943,-1.839875,0.542225\C,0,-2.780552,-1.852527,0.59953\C,0,-2.82
 7289,0.351215,-0.36236\C,0,-3.533791,-0.755315,0.152782\N,0,5.038137,-
 0.655845,-0.30664\O,0,-3.559665,1.416316,-0.868112\C,0,-3.738035,2.495
 777,0.059155\N,0,-4.925449,-0.707478,0.24734\H,0,0.993038,1.378478,0.3
 45196\H,0,1.003749,-2.848083,-0.442577\H,0,-0.952879,1.218797,-0.87148
 7\H,0,-0.843138,-2.698479,0.922883\H,0,-3.297128,-2.717931,1.008263\H,
 0,5.449711,0.132327,0.180695\H,0,5.507928,-1.521215,-0.064685\H,0,-4.3
 33932,3.25256,-0.45594\H,0,-4.269539,2.161179,0.958355\H,0,-2.772503,2
 .92695,0.350252\H,0,-5.340973,-0.06281,-0.416656\H,0,-5.378967,-1.6137
 03,0.215975\O,0,3.700561,1.594862,0.222607\C,0,3.059319,2.831643,0.514
 56\H,0,3.464758,-2.820702,-0.537492\H,0,3.858327,3.568368,0.611053\H,0
 ,2.383039,3.131243,-0.295341\H,0,2.496469,2.778166,1.454641\\Version=E
 M64L-G16RevC.01\State=1-A\HF=-798.0605327\RMSD=8.685e-09\Dipole=-0.270
 6812,0.287171,0.7329755\Quadrupole=4.3417206,8.2258498,-12.5675705,0.6
 229912,5.645279,1.3891741\PG=C01 [X(C14H16N2O2)]\\@


 THERE IS NO SUBJECT, HOWEVER COMPLEX,
 WHICH, IF STUDIED WITH PATIENCE AND INTELLIGIENCE
 WILL NOT BECOME
 MORE COMPLEX
                        QUOTED BY D. GORDON ROHMAN
 Job cpu time:       0 days  0 hours  4 minutes 29.1 seconds.
 Elapsed time:       0 days  0 hours  0 minutes 34.1 seconds.
 File lengths (MBytes):  RWF=     54 Int=      0 D2E=      0 Chk=      7 Scr=      1
 Normal termination of Gaussian 16 at Fri Nov 11 10:23:22 2022.
