 Entering Gaussian System, Link 0=g16
 Input=Conformes_1_MM_water.gjf
 Output=Conformes_1_MM_water.log
 Initial command:
 /home/Programs/g16_gost/l1.exe "/storage/users/gostb/Gau-388.inp" -scrdir="/storage/users/gostb/"
 Entering Link 1 = /home/Programs/g16_gost/l1.exe PID=       389.
  
 Copyright (c) 1988-2019, Gaussian, Inc.  All Rights Reserved.
  
 This is part of the Gaussian(R) 16 program.  It is based on
 the Gaussian(R) 09 system (copyright 2009, Gaussian, Inc.),
 the Gaussian(R) 03 system (copyright 2003, Gaussian, Inc.),
 the Gaussian(R) 98 system (copyright 1998, Gaussian, Inc.),
 the Gaussian(R) 94 system (copyright 1995, Gaussian, Inc.),
 the Gaussian 92(TM) system (copyright 1992, Gaussian, Inc.),
 the Gaussian 90(TM) system (copyright 1990, Gaussian, Inc.),
 the Gaussian 88(TM) system (copyright 1988, Gaussian, Inc.),
 the Gaussian 86(TM) system (copyright 1986, Carnegie Mellon
 University), and the Gaussian 82(TM) system (copyright 1983,
 Carnegie Mellon University). Gaussian is a federally registered
 trademark of Gaussian, Inc.
  
 This software contains proprietary and confidential information,
 including trade secrets, belonging to Gaussian, Inc.
  
 This software is provided under written license and may be
 used, copied, transmitted, or stored only in accord with that
 written license.
  
 The following legend is applicable only to US Government
 contracts under FAR:
  
                    RESTRICTED RIGHTS LEGEND
  
 Use, reproduction and disclosure by the US Government is
 subject to restrictions as set forth in subparagraphs (a)
 and (c) of the Commercial Computer Software - Restricted
 Rights clause in FAR 52.227-19.
  
 Gaussian, Inc.
 340 Quinnipiac St., Bldg. 40, Wallingford CT 06492
  
  
 ---------------------------------------------------------------
 Warning -- This program may not be used in any manner that
 competes with the business of Gaussian, Inc. or will provide
 assistance to any competitor of Gaussian, Inc.  The licensee
 of this program is prohibited from giving any competitor of
 Gaussian, Inc. access to this program.  By using this program,
 the user acknowledges that Gaussian, Inc. is engaged in the
 business of creating and licensing software in the field of
 computational chemistry and represents and warrants to the
 licensee that it is not a competitor of Gaussian, Inc. and that
 it will not use this program in any manner prohibited above.
 ---------------------------------------------------------------
  

 Cite this work as:
 Gaussian 16, Revision C.01,
 M. J. Frisch, G. W. Trucks, H. B. Schlegel, G. E. Scuseria, 
 M. A. Robb, J. R. Cheeseman, G. Scalmani, V. Barone, 
 G. A. Petersson, H. Nakatsuji, X. Li, M. Caricato, A. V. Marenich, 
 J. Bloino, B. G. Janesko, R. Gomperts, B. Mennucci, H. P. Hratchian, 
 J. V. Ortiz, A. F. Izmaylov, J. L. Sonnenberg, D. Williams-Young, 
 F. Ding, F. Lipparini, F. Egidi, J. Goings, B. Peng, A. Petrone, 
 T. Henderson, D. Ranasinghe, V. G. Zakrzewski, J. Gao, N. Rega, 
 G. Zheng, W. Liang, M. Hada, M. Ehara, K. Toyota, R. Fukuda, 
 J. Hasegawa, M. Ishida, T. Nakajima, Y. Honda, O. Kitao, H. Nakai, 
 T. Vreven, K. Throssell, J. A. Montgomery, Jr., J. E. Peralta, 
 F. Ogliaro, M. J. Bearpark, J. J. Heyd, E. N. Brothers, K. N. Kudin, 
 V. N. Staroverov, T. A. Keith, R. Kobayashi, J. Normand, 
 K. Raghavachari, A. P. Rendell, J. C. Burant, S. S. Iyengar, 
 J. Tomasi, M. Cossi, J. M. Millam, M. Klene, C. Adamo, R. Cammi, 
 J. W. Ochterski, R. L. Martin, K. Morokuma, O. Farkas, 
 J. B. Foresman, and D. J. Fox, Gaussian, Inc., Wallingford CT, 2019.
 
 ******************************************
 Gaussian 16:  EM64L-G16RevC.01  3-Jul-2019
                28-Oct-2022 
 ******************************************
 %chk=Conformes_1_MM_water.chk
 %mem=32gb
 %nprocshared=8
 Will use up to    8 processors via shared memory.
 -------------------------------------------------
 # B3LYP 6-31G(d) opt freq scrf(pcm,solvent=water)
 -------------------------------------------------
 1/18=20,19=15,26=3,38=1/1,3;
 2/9=110,12=2,17=6,18=5,40=1/2;
 3/5=1,6=6,7=1,11=2,25=1,30=1,70=2201,71=1,72=1,74=-5/1,2,3;
 4//1;
 5/5=2,38=5,53=1/2;
 6/7=2,8=2,9=2,10=2,28=1/1;
 7//1,2,3,16;
 1/18=20,19=15,26=3/3(2);
 2/9=110/2;
 99//99;
 2/9=110/2;
 3/5=1,6=6,7=1,11=2,25=1,30=1,70=2205,71=1,72=1,74=-5/1,2,3;
 4/5=5,16=3,69=1/1;
 5/5=2,38=5,53=1/2;
 7//1,2,3,16;
 1/18=20,19=15,26=3/3(-5);
 2/9=110/2;
 6/7=2,8=2,9=2,10=2,19=2,28=1/1;
 99/9=1/99;
 ---------------------------
 optimization of conformer 1
 ---------------------------
 Symbolic Z-matrix:
 Charge =  0 Multiplicity = 1
 C                     0.6158    0.2081    1.7227 
 C                    -0.1921   -0.1327    0.6238 
 C                     0.1914    0.1786    3.0616 
 C                    -1.1383   -0.1903    3.2836 
 C                    -1.5051   -0.5263    0.9235 
 C                    -1.9813   -0.546     2.2343 
 C                     0.2732   -0.0659   -0.7093 
 C                    -0.3873   -0.71     -1.7689 
 C                     1.4042    0.6852   -1.0656 
 C                     1.7972    0.831    -2.3963 
 C                     0.0338   -0.671    -3.1041 
 C                     1.0925    0.1867   -3.4099 
 N                    -1.6147   -0.211     4.5399 
 O                    -0.7033   -1.2752   -4.0817 
 C                    -0.2075   -2.5317   -4.4759 
 N                     1.48      0.3545   -4.6852 
 H                     1.6616    0.4888    1.5445 
 H                    -2.2415   -0.7755    0.145 
 H                    -1.2858   -1.3197   -1.5949 
 H                     1.9766    1.2738   -0.333 
 H                     2.651     1.4807   -2.6488 
 H                    -0.9559    0.0624    5.2659 
 H                    -2.5872   -0.495     4.641 
 H                    -0.9396   -2.969    -5.1898 
 H                     0.7727   -2.3922   -4.9854 
 H                    -0.1156   -3.1954   -3.5855 
 H                     0.9369   -0.1566   -5.3783 
 H                     2.2774    0.9722   -4.8204 
 O                     0.9596    0.5142    4.1466 
 C                     2.2242    1.0941    3.9451 
 H                    -3.0289   -0.8269    2.4347 
 H                     2.6224    1.3497    4.9524 
 H                     2.9077    0.3549    3.4678 
 H                     2.1132    2.0319    3.3549 
 

 GradGradGradGradGradGradGradGradGradGradGradGradGradGradGradGradGradGrad
 Berny optimization.
 Initialization pass.
                           ----------------------------
                           !    Initial Parameters    !
                           ! (Angstroms and Degrees)  !
 --------------------------                            --------------------------
 ! Name  Definition              Value          Derivative Info.                !
 --------------------------------------------------------------------------------
 ! R1    R(1,2)                  1.4059         estimate D2E/DX2                !
 ! R2    R(1,3)                  1.4049         estimate D2E/DX2                !
 ! R3    R(1,17)                 1.0974         estimate D2E/DX2                !
 ! R4    R(2,5)                  1.4031         estimate D2E/DX2                !
 ! R5    R(2,7)                  1.4135         estimate D2E/DX2                !
 ! R6    R(3,4)                  1.3977         estimate D2E/DX2                !
 ! R7    R(3,29)                 1.3711         estimate D2E/DX2                !
 ! R8    R(4,6)                  1.3922         estimate D2E/DX2                !
 ! R9    R(4,13)                 1.3438         estimate D2E/DX2                !
 ! R10   R(5,6)                  1.3948         estimate D2E/DX2                !
 ! R11   R(5,18)                 1.1002         estimate D2E/DX2                !
 ! R12   R(6,31)                 1.103          estimate D2E/DX2                !
 ! R13   R(7,8)                  1.4049         estimate D2E/DX2                !
 ! R14   R(7,9)                  1.4037         estimate D2E/DX2                !
 ! R15   R(8,11)                 1.4006         estimate D2E/DX2                !
 ! R16   R(8,19)                 1.0997         estimate D2E/DX2                !
 ! R17   R(9,10)                 1.3952         estimate D2E/DX2                !
 ! R18   R(9,20)                 1.1004         estimate D2E/DX2                !
 ! R19   R(10,12)                1.3925         estimate D2E/DX2                !
 ! R20   R(10,21)                1.1022         estimate D2E/DX2                !
 ! R21   R(11,12)                1.3964         estimate D2E/DX2                !
 ! R22   R(11,14)                1.3653         estimate D2E/DX2                !
 ! R23   R(12,16)                1.3434         estimate D2E/DX2                !
 ! R24   R(13,22)                1.0178         estimate D2E/DX2                !
 ! R25   R(13,23)                1.0182         estimate D2E/DX2                !
 ! R26   R(14,15)                1.4071         estimate D2E/DX2                !
 ! R27   R(15,24)                1.1121         estimate D2E/DX2                !
 ! R28   R(15,25)                1.1135         estimate D2E/DX2                !
 ! R29   R(15,26)                1.1143         estimate D2E/DX2                !
 ! R30   R(16,27)                1.0181         estimate D2E/DX2                !
 ! R31   R(16,28)                1.0177         estimate D2E/DX2                !
 ! R32   R(29,30)                1.4057         estimate D2E/DX2                !
 ! R33   R(30,32)                1.1129         estimate D2E/DX2                !
 ! R34   R(30,33)                1.1142         estimate D2E/DX2                !
 ! R35   R(30,34)                1.1136         estimate D2E/DX2                !
 ! A1    A(2,1,3)              124.4901         estimate D2E/DX2                !
 ! A2    A(2,1,17)             118.864          estimate D2E/DX2                !
 ! A3    A(3,1,17)             116.6172         estimate D2E/DX2                !
 ! A4    A(1,2,5)              116.0277         estimate D2E/DX2                !
 ! A5    A(1,2,7)              122.4493         estimate D2E/DX2                !
 ! A6    A(5,2,7)              121.5155         estimate D2E/DX2                !
 ! A7    A(1,3,4)              116.3801         estimate D2E/DX2                !
 ! A8    A(1,3,29)             125.4345         estimate D2E/DX2                !
 ! A9    A(4,3,29)             118.1601         estimate D2E/DX2                !
 ! A10   A(3,4,6)              121.5871         estimate D2E/DX2                !
 ! A11   A(3,4,13)             119.3309         estimate D2E/DX2                !
 ! A12   A(6,4,13)             119.0807         estimate D2E/DX2                !
 ! A13   A(2,5,6)              121.6142         estimate D2E/DX2                !
 ! A14   A(2,5,18)             122.5982         estimate D2E/DX2                !
 ! A15   A(6,5,18)             115.6758         estimate D2E/DX2                !
 ! A16   A(4,6,5)              119.8669         estimate D2E/DX2                !
 ! A17   A(4,6,31)             120.2154         estimate D2E/DX2                !
 ! A18   A(5,6,31)             119.9098         estimate D2E/DX2                !
 ! A19   A(2,7,8)              122.3339         estimate D2E/DX2                !
 ! A20   A(2,7,9)              121.9992         estimate D2E/DX2                !
 ! A21   A(8,7,9)              115.6377         estimate D2E/DX2                !
 ! A22   A(7,8,11)             124.3936         estimate D2E/DX2                !
 ! A23   A(7,8,19)             121.2626         estimate D2E/DX2                !
 ! A24   A(11,8,19)            114.3265         estimate D2E/DX2                !
 ! A25   A(7,9,10)             121.6682         estimate D2E/DX2                !
 ! A26   A(7,9,20)             122.4375         estimate D2E/DX2                !
 ! A27   A(10,9,20)            115.6319         estimate D2E/DX2                !
 ! A28   A(9,10,12)            120.2222         estimate D2E/DX2                !
 ! A29   A(9,10,21)            119.8882         estimate D2E/DX2                !
 ! A30   A(12,10,21)           119.8675         estimate D2E/DX2                !
 ! A31   A(8,11,12)            116.9888         estimate D2E/DX2                !
 ! A32   A(8,11,14)            120.5282         estimate D2E/DX2                !
 ! A33   A(12,11,14)           121.6222         estimate D2E/DX2                !
 ! A34   A(10,12,11)           120.5612         estimate D2E/DX2                !
 ! A35   A(10,12,16)           119.1586         estimate D2E/DX2                !
 ! A36   A(11,12,16)           120.2182         estimate D2E/DX2                !
 ! A37   A(4,13,22)            115.6758         estimate D2E/DX2                !
 ! A38   A(4,13,23)            115.834          estimate D2E/DX2                !
 ! A39   A(22,13,23)           128.4899         estimate D2E/DX2                !
 ! A40   A(11,14,15)           113.9244         estimate D2E/DX2                !
 ! A41   A(14,15,24)           107.3976         estimate D2E/DX2                !
 ! A42   A(14,15,25)           109.0558         estimate D2E/DX2                !
 ! A43   A(14,15,26)           109.6975         estimate D2E/DX2                !
 ! A44   A(24,15,25)           109.574          estimate D2E/DX2                !
 ! A45   A(24,15,26)           109.4516         estimate D2E/DX2                !
 ! A46   A(25,15,26)           111.57           estimate D2E/DX2                !
 ! A47   A(12,16,27)           115.4476         estimate D2E/DX2                !
 ! A48   A(12,16,28)           115.3372         estimate D2E/DX2                !
 ! A49   A(27,16,28)           129.2148         estimate D2E/DX2                !
 ! A50   A(3,29,30)            119.4431         estimate D2E/DX2                !
 ! A51   A(29,30,32)           106.6715         estimate D2E/DX2                !
 ! A52   A(29,30,33)           109.8513         estimate D2E/DX2                !
 ! A53   A(29,30,34)           109.4934         estimate D2E/DX2                !
 ! A54   A(32,30,33)           108.7001         estimate D2E/DX2                !
 ! A55   A(32,30,34)           108.781          estimate D2E/DX2                !
 ! A56   A(33,30,34)           113.1296         estimate D2E/DX2                !
 ! D1    D(3,1,2,5)             -0.1073         estimate D2E/DX2                !
 ! D2    D(3,1,2,7)            178.9066         estimate D2E/DX2                !
 ! D3    D(17,1,2,5)           177.877          estimate D2E/DX2                !
 ! D4    D(17,1,2,7)            -3.1091         estimate D2E/DX2                !
 ! D5    D(2,1,3,4)             -1.4602         estimate D2E/DX2                !
 ! D6    D(2,1,3,29)          -179.5894         estimate D2E/DX2                !
 ! D7    D(17,1,3,4)          -179.4857         estimate D2E/DX2                !
 ! D8    D(17,1,3,29)            2.3851         estimate D2E/DX2                !
 ! D9    D(1,2,5,6)              1.4068         estimate D2E/DX2                !
 ! D10   D(1,2,5,18)           177.3964         estimate D2E/DX2                !
 ! D11   D(7,2,5,6)           -177.617          estimate D2E/DX2                !
 ! D12   D(7,2,5,18)            -1.6274         estimate D2E/DX2                !
 ! D13   D(1,2,7,8)            163.5529         estimate D2E/DX2                !
 ! D14   D(1,2,7,9)            -18.4997         estimate D2E/DX2                !
 ! D15   D(5,2,7,8)            -17.4866         estimate D2E/DX2                !
 ! D16   D(5,2,7,9)            160.4608         estimate D2E/DX2                !
 ! D17   D(1,3,4,6)              1.8069         estimate D2E/DX2                !
 ! D18   D(1,3,4,13)          -178.6132         estimate D2E/DX2                !
 ! D19   D(29,3,4,6)          -179.922          estimate D2E/DX2                !
 ! D20   D(29,3,4,13)           -0.3421         estimate D2E/DX2                !
 ! D21   D(1,3,29,30)            8.3469         estimate D2E/DX2                !
 ! D22   D(4,3,29,30)         -169.7521         estimate D2E/DX2                !
 ! D23   D(3,4,6,5)             -0.6167         estimate D2E/DX2                !
 ! D24   D(3,4,6,31)          -179.591          estimate D2E/DX2                !
 ! D25   D(13,4,6,5)           179.8024         estimate D2E/DX2                !
 ! D26   D(13,4,6,31)            0.8281         estimate D2E/DX2                !
 ! D27   D(3,4,13,22)            0.6829         estimate D2E/DX2                !
 ! D28   D(3,4,13,23)         -179.4984         estimate D2E/DX2                !
 ! D29   D(6,4,13,22)         -179.7266         estimate D2E/DX2                !
 ! D30   D(6,4,13,23)            0.0921         estimate D2E/DX2                !
 ! D31   D(2,5,6,4)             -1.0839         estimate D2E/DX2                !
 ! D32   D(2,5,6,31)           177.8936         estimate D2E/DX2                !
 ! D33   D(18,5,6,4)          -177.3355         estimate D2E/DX2                !
 ! D34   D(18,5,6,31)            1.642          estimate D2E/DX2                !
 ! D35   D(2,7,8,11)           179.8986         estimate D2E/DX2                !
 ! D36   D(2,7,8,19)            -1.7012         estimate D2E/DX2                !
 ! D37   D(9,7,8,11)             1.8294         estimate D2E/DX2                !
 ! D38   D(9,7,8,19)          -179.7704         estimate D2E/DX2                !
 ! D39   D(2,7,9,10)          -174.9456         estimate D2E/DX2                !
 ! D40   D(2,7,9,20)            -1.088          estimate D2E/DX2                !
 ! D41   D(8,7,9,10)             3.1307         estimate D2E/DX2                !
 ! D42   D(8,7,9,20)           176.9883         estimate D2E/DX2                !
 ! D43   D(7,8,11,12)           -7.3917         estimate D2E/DX2                !
 ! D44   D(7,8,11,14)         -176.941          estimate D2E/DX2                !
 ! D45   D(19,8,11,12)         174.109          estimate D2E/DX2                !
 ! D46   D(19,8,11,14)           4.5597         estimate D2E/DX2                !
 ! D47   D(7,9,10,12)           -2.277          estimate D2E/DX2                !
 ! D48   D(7,9,10,21)          176.0137         estimate D2E/DX2                !
 ! D49   D(20,9,10,12)        -176.5286         estimate D2E/DX2                !
 ! D50   D(20,9,10,21)           1.7621         estimate D2E/DX2                !
 ! D51   D(9,10,12,11)          -3.6305         estimate D2E/DX2                !
 ! D52   D(9,10,12,16)         179.2265         estimate D2E/DX2                !
 ! D53   D(21,10,12,11)        178.0784         estimate D2E/DX2                !
 ! D54   D(21,10,12,16)          0.9354         estimate D2E/DX2                !
 ! D55   D(8,11,12,10)           8.1169         estimate D2E/DX2                !
 ! D56   D(8,11,12,16)        -174.7705         estimate D2E/DX2                !
 ! D57   D(14,11,12,10)        177.5438         estimate D2E/DX2                !
 ! D58   D(14,11,12,16)         -5.3435         estimate D2E/DX2                !
 ! D59   D(8,11,14,15)        -100.4009         estimate D2E/DX2                !
 ! D60   D(12,11,14,15)         90.5413         estimate D2E/DX2                !
 ! D61   D(10,12,16,27)        178.8416         estimate D2E/DX2                !
 ! D62   D(10,12,16,28)         -0.9412         estimate D2E/DX2                !
 ! D63   D(11,12,16,27)          1.6886         estimate D2E/DX2                !
 ! D64   D(11,12,16,28)       -178.0943         estimate D2E/DX2                !
 ! D65   D(11,14,15,24)        174.1831         estimate D2E/DX2                !
 ! D66   D(11,14,15,25)        -67.153          estimate D2E/DX2                !
 ! D67   D(11,14,15,26)         55.3122         estimate D2E/DX2                !
 ! D68   D(3,29,30,32)         175.7045         estimate D2E/DX2                !
 ! D69   D(3,29,30,33)         -66.6534         estimate D2E/DX2                !
 ! D70   D(3,29,30,34)          58.1544         estimate D2E/DX2                !
 --------------------------------------------------------------------------------
 Trust Radius=3.00D-01 FncErr=1.00D-07 GrdErr=1.00D-06 EigMax=2.50D+02 EigMin=1.00D-04
 Number of steps in this run=    171 maximum allowed number of steps=    204.
 GradGradGradGradGradGradGradGradGradGradGradGradGradGradGradGradGradGrad

                          Input orientation:                          
 ---------------------------------------------------------------------
 Center     Atomic      Atomic             Coordinates (Angstroms)
 Number     Number       Type             X           Y           Z
 ---------------------------------------------------------------------
      1          6           0        0.615800    0.208100    1.722700
      2          6           0       -0.192100   -0.132700    0.623800
      3          6           0        0.191400    0.178600    3.061600
      4          6           0       -1.138300   -0.190300    3.283600
      5          6           0       -1.505100   -0.526300    0.923500
      6          6           0       -1.981300   -0.546000    2.234300
      7          6           0        0.273200   -0.065900   -0.709300
      8          6           0       -0.387300   -0.710000   -1.768900
      9          6           0        1.404200    0.685200   -1.065600
     10          6           0        1.797200    0.831000   -2.396300
     11          6           0        0.033800   -0.671000   -3.104100
     12          6           0        1.092500    0.186700   -3.409900
     13          7           0       -1.614700   -0.211000    4.539900
     14          8           0       -0.703300   -1.275200   -4.081700
     15          6           0       -0.207500   -2.531700   -4.475900
     16          7           0        1.480000    0.354500   -4.685200
     17          1           0        1.661600    0.488800    1.544500
     18          1           0       -2.241500   -0.775500    0.145000
     19          1           0       -1.285800   -1.319700   -1.594900
     20          1           0        1.976600    1.273800   -0.333000
     21          1           0        2.651000    1.480700   -2.648800
     22          1           0       -0.955900    0.062400    5.265900
     23          1           0       -2.587200   -0.495000    4.641000
     24          1           0       -0.939600   -2.969000   -5.189800
     25          1           0        0.772700   -2.392200   -4.985400
     26          1           0       -0.115600   -3.195400   -3.585500
     27          1           0        0.936900   -0.156600   -5.378300
     28          1           0        2.277400    0.972200   -4.820400
     29          8           0        0.959600    0.514200    4.146600
     30          6           0        2.224200    1.094100    3.945100
     31          1           0       -3.028900   -0.826900    2.434700
     32          1           0        2.622400    1.349700    4.952400
     33          1           0        2.907700    0.354900    3.467800
     34          1           0        2.113200    2.031900    3.354900
 ---------------------------------------------------------------------
                    Distance matrix (angstroms):
                    1          2          3          4          5
     1  C    0.000000
     2  C    1.405855   0.000000
     3  C    1.404863   2.487338   0.000000
     4  C    2.381596   2.823676   1.397667   0.000000
     5  C    2.382495   1.403107   2.818948   2.411952   0.000000
     6  C    2.752332   2.442491   2.435179   1.392193   1.394758
     7  C    2.471250   1.413549   3.779703   4.236869   2.457713
     8  C    3.747051   2.469087   4.945527   5.134379   2.921000
     9  C    2.936633   2.463982   4.331432   5.113350   3.726698
    10  C    4.330112   3.742598   5.726508   6.474680   4.875297
    11  C    4.940601   3.773332   6.225955   6.512112   4.314014
    12  C    5.154734   4.245344   6.533939   7.065518   5.102377
    13  N    3.617650   4.167225   2.366254   1.343754   3.631773
    14  O    6.134433   4.869123   7.344437   7.457471   5.124038
    15  C    6.826930   5.635812   8.019897   8.158332   5.904144
    16  N    6.467570   5.587375   7.855211   8.405598   6.414370
    17  H    1.097381   2.161054   2.135253   3.365276   3.382907
    18  H    3.408925   2.200564   3.916103   3.377916   1.100204
    19  H    4.117854   2.743680   5.109796   5.009697   2.649512
    20  H    2.685777   2.756260   3.988698   4.992593   4.115992
    21  H    4.987140   4.625601   6.352461   7.234943   5.836312
    22  H    3.878883   4.708561   2.487717   2.006649   4.416404
    23  H    4.389765   4.691019   3.266322   2.008653   3.871915
    24  H    7.765043   6.511628   8.903491   8.919594   6.607497
    25  H    7.196164   6.123668   8.467652   8.767933   6.601898
    26  H    6.347893   5.206168   7.460701   7.567105   5.420875
    27  H    7.117606   6.107407   8.479389   8.907082   6.768510
    28  H    6.793889   6.079354   8.191894   8.870920   7.038835
    29  O    2.467222   3.762315   1.371125   2.375347   4.188766
    30  C    2.882882   4.286558   2.398122   3.659737   5.065910
    31  H    3.855127   3.436380   3.431380   2.168008   2.167038
    32  H    3.969969   5.371750   3.294899   4.393103   6.065284
    33  H    2.884394   4.234956   2.752157   4.086721   5.169408
    34  H    2.869239   4.178374   2.685900   3.938973   5.054522
                    6          7          8          9         10
     6  C    0.000000
     7  C    3.738723   0.000000
     8  C    4.312000   1.404947   0.000000
     9  C    4.885366   1.403660   2.377117   0.000000
    10  C    6.133160   2.443967   2.745970   1.395159   0.000000
    11  C    5.707431   2.481638   1.400573   2.805843   2.422099
    12  C    6.468546   2.833425   2.384693   2.416899   1.392519
    13  N    2.358477   5.580262   6.446431   6.429507   7.799852
    14  O    6.485127   3.713360   2.401739   4.169123   3.678200
    15  C    7.219152   4.527529   3.267838   4.957436   4.432980
    16  N    7.789158   4.176228   3.622813   3.635466   2.359392
    17  H    3.849332   2.704618   4.075995   2.630105   3.957953
    18  H    2.117911   2.749014   2.665588   4.109784   5.034893
    19  H    3.968010   2.187872   1.099687   3.396451   3.843519
    20  H    5.056449   2.199538   3.403718   1.100361   2.117891
    21  H    7.029252   3.436214   3.847682   2.166530   1.102198
    22  H    3.257636   6.101652   7.099882   6.785709   8.177996
    23  H    2.482322   6.082082   6.780310   7.063245   8.396715
    24  H    7.878663   5.474829   4.136505   5.987955   5.452863
    25  H    7.944623   4.893486   3.810678   5.023347   4.259349
    26  H    6.661098   4.268192   3.090480   4.870189   4.613556
    27  H    8.162059   4.716809   3.884266   4.418866   3.256961
    28  H    8.379156   4.689948   4.386579   3.865666   2.475235
    29  O    3.664670   4.938363   6.189180   5.233922   6.603899
    30  C    4.827318   5.178363   6.536398   5.093792   6.361203
    31  H    1.102965   4.622523   4.966082   5.847300   7.026979
    32  H    5.672372   6.291066   7.646995   6.175913   7.413056
    33  H    5.122057   4.956393   6.278062   4.787622   5.987282
    34  H    4.966512   4.929917   6.326440   4.675158   5.883733
                   11         12         13         14         15
    11  C    0.000000
    12  C    1.396427   0.000000
    13  N    7.833255   8.407521   0.000000
    14  O    1.365312   2.411092   8.734710   0.000000
    15  C    2.324277   3.196256   9.415440   1.407126   0.000000
    16  N    2.375505   1.343392   9.746765   2.790508   3.349868
    17  H    5.060074   4.996120   4.494027   6.352840   6.990148
    18  H    3.967942   4.967766   4.475118   4.525567   5.345476
    19  H    2.107093   3.349594   6.242849   2.554498   3.306333
    20  H    3.903295   3.380937   6.232754   5.266120   6.034546
    21  H    3.418603   2.163939   8.528508   4.571599   5.254395
    22  H    8.460158   8.915206   1.017763   9.446195  10.109012
    23  H    8.178459   8.878170   1.018152   8.957862   9.639968
    24  H    3.252454   4.154024  10.135551   2.037813   1.112140
    25  H    2.654768   3.038947  10.059257   2.059839   1.113482
    26  H    2.574230   3.595684   8.784991   2.068520   1.114341
    27  H    2.500436   2.004162  10.241304   2.371222   2.786589
    28  H    3.267955   2.002625  10.206058   3.805398   4.309376
    29  O    7.405029   7.564761   2.703261   8.583246   9.218847
    30  C    7.589773   7.496676   4.098076   8.866417   9.485401
    31  H    6.331093   7.223065   2.609820   6.933459   7.656568
    32  H    8.700073   8.580281   4.534199   9.978243  10.581420
    33  H    7.245802   7.115195   4.682066   8.525931   9.007736
    34  H    7.303989   7.085839   4.509109   8.612352   9.355935
                   16         17         18         19         20
    16  N    0.000000
    17  H    6.233793   0.000000
    18  H    6.201395   4.334887   0.000000
    19  H    4.472421   4.670511   2.058341   0.000000
    20  H    4.475865   2.059237   4.713861   4.354525   0.000000
    21  H    2.605090   4.421147   6.068963   4.944830   2.420858
    22  H   10.249064   4.569676   5.345883   7.006398   6.435428
    23  H   10.209886   5.348689   4.517987   6.423412   6.978367
    24  H    4.141828   8.004587   5.913246   3.970309   7.077717
    25  H    2.852149   7.192350   6.166046   4.108913   6.044316
    26  H    4.044387   6.561148   4.928691   2.974913   5.910144
    27  H    1.018120   6.990486   6.402508   4.539528   5.346220
    28  H    1.017683   6.412865   6.937587   5.324758   4.507572
    29  O    8.848560   2.695250   5.284238   6.431938   4.655974
    30  C    8.693844   2.538855   6.154563   6.988428   4.289025
    31  H    8.509927   4.952203   2.421852   4.418023   6.093286
    32  H    9.755964   3.643908   7.161361   8.078791   5.325249
    33  H    8.277061   2.295600   6.231618   6.783853   4.019627
    34  H    8.237586   2.421291   6.094946   6.876550   3.767490
                   21         22         23         24         25
    21  H    0.000000
    22  H    8.812706   0.000000
    23  H    9.191480   1.833667   0.000000
    24  H    6.256910  10.886290  10.270340   0.000000
    25  H    4.897659  10.681866  10.370915   1.818364   0.000000
    26  H    5.513383   9.469247   9.004236   1.817694   1.842261
    27  H    3.615116  10.813401  10.626390   3.386204   2.275794
    28  H    2.261415  10.630871  10.739418   5.100843   3.689246
    29  O    7.069117   2.264088   3.720579  10.144358   9.585172
    30  C    6.618998   3.594712   5.114595  10.486411   9.696132
    31  H    7.964186   3.619928   2.274427   8.190651   8.482936
    32  H    7.602383   3.815712   5.535325  11.584612  10.778825
    33  H    6.224638   4.271548   5.682663  10.040123   9.141191
    34  H    6.052889   4.117065   5.489357  10.360525   9.535733
                   26         27         28         29         30
    26  H    0.000000
    27  H    3.681874   0.000000
    28  H    4.961886   1.839125   0.000000
    29  O    8.643064   9.548519   9.074880   0.000000
    30  C    8.976882   9.494587   8.766509   1.405738   0.000000
    31  H    7.095063   8.787482   9.166791   4.542828   5.793670
    32  H   10.052379  10.575122   9.786171   2.027875   1.112901
    33  H    8.455413   9.077399   8.335022   2.069116   1.114183
    34  H    8.970026   9.079757   8.245329   2.064218   1.113609
                   31         32         33         34
    31  H    0.000000
    32  H    6.558475   0.000000
    33  H    6.140616   1.809713   0.000000
    34  H    5.954889   1.810162   1.859114   0.000000
 Stoichiometry    C14H16N2O2
 Framework group  C1[X(C14H16N2O2)]
 Deg. of freedom    96
 Full point group                 C1      NOp   1
 Largest Abelian subgroup         C1      NOp   1
 Largest concise Abelian subgroup C1      NOp   1
                         Standard orientation:                         
 ---------------------------------------------------------------------
 Center     Atomic      Atomic             Coordinates (Angstroms)
 Number     Number       Type             X           Y           Z
 ---------------------------------------------------------------------
      1          6           0       -1.794554    0.585832    0.159616
      2          6           0       -0.724846   -0.285486   -0.110491
      3          6           0       -3.147372    0.207022    0.164558
      4          6           0       -3.420037   -1.126487   -0.153060
      5          6           0       -1.070142   -1.616925   -0.387530
      6          6           0       -2.400181   -2.035537   -0.420874
      7          6           0        0.620675    0.147475   -0.126023
      8          6           0        1.699618   -0.749796   -0.057746
      9          6           0        0.964646    1.502360   -0.253437
     10          6           0        2.292749    1.912842   -0.372242
     11          6           0        3.047364   -0.369028   -0.071922
     12          6           0        3.322926    0.977405   -0.319294
     13          7           0       -4.696030   -1.545872   -0.193459
     14          8           0        4.034595   -1.312104   -0.064263
     15          6           0        4.615633   -1.519710    1.200371
     16          7           0        4.593094    1.394352   -0.451703
     17          1           0       -1.575385    1.629854    0.416967
     18          1           0       -0.323491   -2.379700   -0.654240
     19          1           0        1.535884   -1.832918    0.038957
     20          1           0        0.209632    2.294989   -0.365189
     21          1           0        2.525959    2.977457   -0.536703
     22          1           0       -5.399428   -0.837932    0.006274
     23          1           0       -4.833073   -2.528438   -0.422405
     24          1           0        5.321763   -2.373689    1.105745
     25          1           0        5.175172   -0.604217    1.498082
     26          1           0        3.822701   -1.774141    1.940830
     27          1           0        5.301665    0.666232   -0.385850
     28          1           0        4.709976    2.394334   -0.600208
     29          8           0       -4.205618    1.041428    0.417274
     30          6           0       -3.983959    2.425390    0.525054
     31          1           0       -2.641429   -3.081174   -0.675772
     32          1           0       -4.982823    2.899933    0.650058
     33          1           0       -3.370324    2.640965    1.429699
     34          1           0       -3.523193    2.802341   -0.416078
 ---------------------------------------------------------------------
 Rotational constants (GHZ):           0.9604182           0.1923498           0.1652655
 Standard basis: 6-31G(d) (6D, 7F)
 There are   302 symmetry adapted cartesian basis functions of A   symmetry.
 There are   302 symmetry adapted basis functions of A   symmetry.
   302 basis functions,   568 primitive gaussians,   302 cartesian basis functions
    65 alpha electrons       65 beta electrons
       nuclear repulsion energy      1249.5955850887 Hartrees.
 NAtoms=   34 NActive=   34 NUniq=   34 SFac= 1.00D+00 NAtFMM=   60 NAOKFM=F Big=F
 Integral buffers will be    131072 words long.
 Raffenetti 2 integral format.
 Two-electron integral symmetry is turned on.
 ------------------------------------------------------------------------------
 Polarizable Continuum Model (PCM)
 =================================
 Model                : PCM.
 Atomic radii         : UFF (Universal Force Field).
 Polarization charges : Total charges.
 Charge compensation  : None.
 Solution method      : On-the-fly selection.
 Cavity type          : Scaled VdW (van der Waals Surface) (Alpha=1.100).
 Cavity algorithm     : GePol (No added spheres)
                        Default sphere list used, NSphG=   34.
                        Lebedev-Laikov grids with approx.  5.0 points / Ang**2.
                        Smoothing algorithm: York/Karplus (Gamma=1.0000).
                        Polarization charges: spherical gaussians, with
                                              point-specific exponents (IZeta= 3).
                        Self-potential: point-specific (ISelfS= 7).
                        Self-field    : sphere-specific E.n sum rule (ISelfD= 2).
 1st derivatives      : Analytical E(r).r(x)/FMM algorithm (CHGder, D1EAlg=3).
                        Cavity 1st derivative terms included.
 Solvent              : Water, Eps=  78.355300 Eps(inf)=   1.777849
 ------------------------------------------------------------------------------
 One-electron integrals computed using PRISM.
 NBasis=   302 RedAO= T EigKep=  3.24D-04  NBF=   302
 NBsUse=   302 1.00D-06 EigRej= -1.00D+00 NBFU=   302
 ExpMin= 1.61D-01 ExpMax= 5.48D+03 ExpMxC= 8.25D+02 IAcc=3 IRadAn=         5 AccDes= 0.00D+00
 Harris functional with IExCor=  402 and IRadAn=       5 diagonalized for initial guess.
 HarFok:  IExCor=  402 AccDes= 0.00D+00 IRadAn=         5 IDoV= 1 UseB2=F ITyADJ=14
 ICtDFT=  3500011 ScaDFX=  1.000000  1.000000  1.000000  1.000000
 FoFCou: FMM=F IPFlag=           0 FMFlag=      100000 FMFlg1=           0
         NFxFlg=           0 DoJE=T BraDBF=F KetDBF=T FulRan=T
         wScrn=  0.000000 ICntrl=       500 IOpCl=  0 I1Cent=   200000004 NGrid=           0
         NMat0=    1 NMatS0=      1 NMatT0=    0 NMatD0=    1 NMtDS0=    0 NMtDT0=    0
 Petite list used in FoFCou.
 Requested convergence on RMS density matrix=1.00D-08 within 128 cycles.
 Requested convergence on MAX density matrix=1.00D-06.
 Requested convergence on             energy=1.00D-06.
 No special actions if energy rises.
 Inv3:  Mode=1 IEnd=    19187523.
 Iteration    1 A*A^-1 deviation from unit magnitude is 6.44D-15 for   2211.
 Iteration    1 A*A^-1 deviation from orthogonality  is 5.37D-15 for   1509    729.
 Iteration    1 A^-1*A deviation from unit magnitude is 6.33D-15 for   2342.
 Iteration    1 A^-1*A deviation from orthogonality  is 6.44D-15 for   1287   1257.
 Error on total polarization charges =  0.00975
 SCF Done:  E(RB3LYP) =  -803.036528766     A.U. after   13 cycles
            NFock= 13  Conv=0.37D-08     -V/T= 2.0091

 **********************************************************************

            Population analysis using the SCF Density.

 **********************************************************************

 Orbital symmetries:
       Occupied  (A) (A) (A) (A) (A) (A) (A) (A) (A) (A) (A) (A)
                 (A) (A) (A) (A) (A) (A) (A) (A) (A) (A) (A) (A)
                 (A) (A) (A) (A) (A) (A) (A) (A) (A) (A) (A) (A)
                 (A) (A) (A) (A) (A) (A) (A) (A) (A) (A) (A) (A)
                 (A) (A) (A) (A) (A) (A) (A) (A) (A) (A) (A) (A)
                 (A) (A) (A) (A) (A)
       Virtual   (A) (A) (A) (A) (A) (A) (A) (A) (A) (A) (A) (A)
                 (A) (A) (A) (A) (A) (A) (A) (A) (A) (A) (A) (A)
                 (A) (A) (A) (A) (A) (A) (A) (A) (A) (A) (A) (A)
                 (A) (A) (A) (A) (A) (A) (A) (A) (A) (A) (A) (A)
                 (A) (A) (A) (A) (A) (A) (A) (A) (A) (A) (A) (A)
                 (A) (A) (A) (A) (A) (A) (A) (A) (A) (A) (A) (A)
                 (A) (A) (A) (A) (A) (A) (A) (A) (A) (A) (A) (A)
                 (A) (A) (A) (A) (A) (A) (A) (A) (A) (A) (A) (A)
                 (A) (A) (A) (A) (A) (A) (A) (A) (A) (A) (A) (A)
                 (A) (A) (A) (A) (A) (A) (A) (A) (A) (A) (A) (A)
                 (A) (A) (A) (A) (A) (A) (A) (A) (A) (A) (A) (A)
                 (A) (A) (A) (A) (A) (A) (A) (A) (A) (A) (A) (A)
                 (A) (A) (A) (A) (A) (A) (A) (A) (A) (A) (A) (A)
                 (A) (A) (A) (A) (A) (A) (A) (A) (A) (A) (A) (A)
                 (A) (A) (A) (A) (A) (A) (A) (A) (A) (A) (A) (A)
                 (A) (A) (A) (A) (A) (A) (A) (A) (A) (A) (A) (A)
                 (A) (A) (A) (A) (A) (A) (A) (A) (A) (A) (A) (A)
                 (A) (A) (A) (A) (A) (A) (A) (A) (A) (A) (A) (A)
                 (A) (A) (A) (A) (A) (A) (A) (A) (A) (A) (A) (A)
                 (A) (A) (A) (A) (A) (A) (A) (A) (A)
 The electronic state is 1-A.
 Alpha  occ. eigenvalues --  -19.17947 -19.16733 -14.33751 -14.33342 -10.24074
 Alpha  occ. eigenvalues --  -10.23660 -10.23605 -10.22718 -10.21831 -10.21734
 Alpha  occ. eigenvalues --  -10.18157 -10.18079 -10.18048 -10.17972 -10.17855
 Alpha  occ. eigenvalues --  -10.17758 -10.17687 -10.17580  -1.06627  -1.06270
 Alpha  occ. eigenvalues --   -0.92469  -0.92259  -0.85197  -0.81930  -0.75833
 Alpha  occ. eigenvalues --   -0.74827  -0.73928  -0.70724  -0.68156  -0.67688
 Alpha  occ. eigenvalues --   -0.62080  -0.61546  -0.59531  -0.56942  -0.53606
 Alpha  occ. eigenvalues --   -0.53518  -0.51544  -0.51148  -0.49846  -0.49045
 Alpha  occ. eigenvalues --   -0.46949  -0.46244  -0.45822  -0.45791  -0.44919
 Alpha  occ. eigenvalues --   -0.43092  -0.42029  -0.41929  -0.40276  -0.39393
 Alpha  occ. eigenvalues --   -0.38255  -0.38044  -0.36597  -0.36108  -0.34625
 Alpha  occ. eigenvalues --   -0.33767  -0.32909  -0.32630  -0.31721  -0.28755
 Alpha  occ. eigenvalues --   -0.27432  -0.23875  -0.22915  -0.20667  -0.16138
 Alpha virt. eigenvalues --   -0.00532  -0.00068   0.01811   0.06876   0.07948
 Alpha virt. eigenvalues --    0.08781   0.09594   0.10629   0.11139   0.12317
 Alpha virt. eigenvalues --    0.13692   0.14666   0.15026   0.15242   0.16096
 Alpha virt. eigenvalues --    0.16534   0.17078   0.17328   0.17547   0.18486
 Alpha virt. eigenvalues --    0.19503   0.21016   0.21897   0.23402   0.24828
 Alpha virt. eigenvalues --    0.27368   0.28071   0.28884   0.32191   0.32906
 Alpha virt. eigenvalues --    0.33921   0.35782   0.36315   0.38090   0.41481
 Alpha virt. eigenvalues --    0.42544   0.45482   0.49149   0.50021   0.51246
 Alpha virt. eigenvalues --    0.51554   0.52695   0.53033   0.53809   0.54424
 Alpha virt. eigenvalues --    0.55055   0.55599   0.56351   0.56884   0.57082
 Alpha virt. eigenvalues --    0.57780   0.58757   0.59181   0.60360   0.60716
 Alpha virt. eigenvalues --    0.60976   0.62001   0.62618   0.63276   0.63790
 Alpha virt. eigenvalues --    0.64774   0.66089   0.66518   0.67628   0.68734
 Alpha virt. eigenvalues --    0.69226   0.69340   0.70960   0.73348   0.73985
 Alpha virt. eigenvalues --    0.75399   0.76252   0.77678   0.80569   0.80702
 Alpha virt. eigenvalues --    0.81744   0.82763   0.83303   0.84729   0.85253
 Alpha virt. eigenvalues --    0.85892   0.86491   0.86926   0.87625   0.88076
 Alpha virt. eigenvalues --    0.88589   0.89737   0.90346   0.90654   0.92352
 Alpha virt. eigenvalues --    0.93388   0.93875   0.96459   0.97144   0.98438
 Alpha virt. eigenvalues --    0.99187   1.00190   1.01292   1.03658   1.05671
 Alpha virt. eigenvalues --    1.07144   1.07924   1.08700   1.10018   1.11647
 Alpha virt. eigenvalues --    1.12158   1.14445   1.15634   1.16999   1.20338
 Alpha virt. eigenvalues --    1.22987   1.23802   1.24343   1.24892   1.28055
 Alpha virt. eigenvalues --    1.30655   1.31281   1.33145   1.34651   1.36743
 Alpha virt. eigenvalues --    1.38382   1.39166   1.41028   1.42805   1.44739
 Alpha virt. eigenvalues --    1.45559   1.47084   1.48871   1.50186   1.50684
 Alpha virt. eigenvalues --    1.51406   1.53045   1.55378   1.57534   1.58026
 Alpha virt. eigenvalues --    1.61189   1.65495   1.66389   1.66492   1.69935
 Alpha virt. eigenvalues --    1.71515   1.76208   1.77588   1.79511   1.80172
 Alpha virt. eigenvalues --    1.81196   1.82518   1.83546   1.83818   1.87060
 Alpha virt. eigenvalues --    1.87760   1.89414   1.89682   1.92331   1.93171
 Alpha virt. eigenvalues --    1.94480   1.97417   1.99439   1.99766   2.01220
 Alpha virt. eigenvalues --    2.03119   2.04733   2.06368   2.07109   2.09145
 Alpha virt. eigenvalues --    2.10115   2.10805   2.12477   2.12933   2.14470
 Alpha virt. eigenvalues --    2.16178   2.16316   2.19256   2.21460   2.22451
 Alpha virt. eigenvalues --    2.25220   2.26850   2.28071   2.28302   2.30782
 Alpha virt. eigenvalues --    2.31540   2.33750   2.35832   2.36032   2.36798
 Alpha virt. eigenvalues --    2.37282   2.40423   2.42165   2.42368   2.44713
 Alpha virt. eigenvalues --    2.46755   2.52535   2.55453   2.57013   2.58025
 Alpha virt. eigenvalues --    2.60360   2.60976   2.61428   2.64820   2.65880
 Alpha virt. eigenvalues --    2.68174   2.72072   2.72364   2.77006   2.80431
 Alpha virt. eigenvalues --    2.81976   2.84652   2.87528   2.89552   2.91561
 Alpha virt. eigenvalues --    2.93802   3.02238   3.03747   3.07662   3.09638
 Alpha virt. eigenvalues --    3.21327   3.36595   3.38750   3.50802   3.85132
 Alpha virt. eigenvalues --    3.86926   4.09274   4.10179   4.10847   4.11199
 Alpha virt. eigenvalues --    4.13946   4.17998   4.21312   4.22961   4.28279
 Alpha virt. eigenvalues --    4.33059   4.35027   4.40999   4.47898   4.60060
 Alpha virt. eigenvalues --    4.80654   4.91006
          Condensed to atoms (all electrons):
               1          2          3          4          5          6
     1  C    5.395863   0.444243   0.411575  -0.045990  -0.074112  -0.060525
     2  C    0.444243   4.802479   0.002342  -0.027494   0.499784  -0.020951
     3  C    0.411575   0.002342   4.717833   0.508604  -0.047120  -0.030543
     4  C   -0.045990  -0.027494   0.508604   4.561519  -0.015145   0.547007
     5  C   -0.074112   0.499784  -0.047120  -0.015145   5.116747   0.482873
     6  C   -0.060525  -0.020951  -0.030543   0.547007   0.482873   5.086165
     7  C   -0.042130   0.355464   0.005653   0.000827  -0.051803   0.007750
     8  C    0.010862  -0.039458  -0.000148  -0.000002  -0.025407   0.000595
     9  C   -0.025691  -0.052875   0.000726  -0.000018   0.010866  -0.000195
    10  C    0.000576   0.007352  -0.000010  -0.000000  -0.000191   0.000002
    11  C   -0.000144   0.005716   0.000002  -0.000000   0.000757  -0.000015
    12  C   -0.000002   0.000688  -0.000000   0.000000  -0.000036   0.000000
    13  N    0.010539  -0.000101  -0.075624   0.276940   0.007502  -0.092057
    14  O    0.000000  -0.000090   0.000000   0.000000   0.000003  -0.000000
    15  C    0.000000   0.000005  -0.000000   0.000000  -0.000001  -0.000000
    16  N    0.000000  -0.000005   0.000000  -0.000000  -0.000000   0.000000
    17  H    0.333698  -0.031061  -0.045526   0.004150   0.006837   0.000620
    18  H    0.006446  -0.031144   0.000774   0.003551   0.344068  -0.042681
    19  H   -0.000252  -0.015244   0.000004  -0.000011   0.006704   0.000233
    20  H    0.005918  -0.013400   0.000398  -0.000003  -0.000279  -0.000001
    21  H    0.000007  -0.000225   0.000000  -0.000000   0.000002  -0.000000
    22  H    0.000630  -0.000050  -0.016117  -0.023814  -0.000163   0.005998
    23  H   -0.000200   0.000004   0.005864  -0.021110  -0.000051  -0.007906
    24  H   -0.000000  -0.000000  -0.000000  -0.000000   0.000000   0.000000
    25  H   -0.000000  -0.000001   0.000000   0.000000   0.000000  -0.000000
    26  H   -0.000000   0.000012   0.000000   0.000000  -0.000003  -0.000000
    27  H   -0.000000   0.000001   0.000000   0.000000  -0.000000  -0.000000
    28  H   -0.000000  -0.000000  -0.000000   0.000000   0.000000  -0.000000
    29  O   -0.061218   0.003680   0.265414  -0.058552   0.000012   0.003753
    30  C   -0.006770   0.000228  -0.043007   0.004276   0.000017  -0.000113
    31  H    0.000351   0.002673   0.004984  -0.038654  -0.031300   0.349780
    32  H    0.000187   0.000009   0.002303   0.000025  -0.000000   0.000006
    33  H    0.002967  -0.000181  -0.003622  -0.000213   0.000006  -0.000008
    34  H    0.006932  -0.000211  -0.002521   0.000015  -0.000012  -0.000026
               7          8          9         10         11         12
     1  C   -0.042130   0.010862  -0.025691   0.000576  -0.000144  -0.000002
     2  C    0.355464  -0.039458  -0.052875   0.007352   0.005716   0.000688
     3  C    0.005653  -0.000148   0.000726  -0.000010   0.000002  -0.000000
     4  C    0.000827  -0.000002  -0.000018  -0.000000  -0.000000   0.000000
     5  C   -0.051803  -0.025407   0.010866  -0.000191   0.000757  -0.000036
     6  C    0.007750   0.000595  -0.000195   0.000002  -0.000015   0.000000
     7  C    4.849981   0.439748   0.492235  -0.020405  -0.010893  -0.029164
     8  C    0.439748   5.292993  -0.078806  -0.054261   0.482242  -0.051070
     9  C    0.492235  -0.078806   5.104995   0.489332  -0.042241  -0.015088
    10  C   -0.020405  -0.054261   0.489332   5.120300  -0.029234   0.499069
    11  C   -0.010893   0.482242  -0.042241  -0.029234   4.768459   0.487993
    12  C   -0.029164  -0.051070  -0.015088   0.499069   0.487993   4.605688
    13  N   -0.000008   0.000000  -0.000000   0.000000   0.000000  -0.000000
    14  O    0.004119  -0.055957   0.000100   0.005106   0.211057  -0.062109
    15  C   -0.000150  -0.004664   0.000025  -0.000045  -0.041070  -0.004148
    16  N    0.000113   0.009084   0.007047  -0.087995  -0.072704   0.279319
    17  H   -0.015301  -0.000336   0.008228   0.000220   0.000009  -0.000018
    18  H   -0.015273   0.006584  -0.000317  -0.000000   0.000473  -0.000009
    19  H   -0.032823   0.329127   0.006963   0.000261  -0.042686   0.006860
    20  H   -0.033425   0.005727   0.345096  -0.040452   0.000854   0.003511
    21  H    0.002267   0.000660  -0.030293   0.345829   0.004103  -0.035019
    22  H    0.000000  -0.000000  -0.000000  -0.000000   0.000000   0.000000
    23  H    0.000000  -0.000000   0.000000  -0.000000  -0.000000   0.000000
    24  H    0.000003  -0.000021  -0.000000   0.000008   0.003937  -0.000102
    25  H    0.000068   0.000007   0.000006  -0.000614  -0.003593   0.003620
    26  H   -0.000530   0.004402  -0.000028   0.000054   0.002865   0.000167
    27  H   -0.000014   0.000190  -0.000207   0.007527  -0.016116  -0.023610
    28  H   -0.000005  -0.000194  -0.000025  -0.008081   0.005672  -0.020800
    29  O   -0.000047   0.000000   0.000003  -0.000000   0.000000  -0.000000
    30  C   -0.000008   0.000000  -0.000026   0.000000  -0.000000   0.000000
    31  H   -0.000215   0.000006   0.000002  -0.000000   0.000000  -0.000000
    32  H   -0.000000  -0.000000   0.000000   0.000000   0.000000  -0.000000
    33  H   -0.000006  -0.000000   0.000014  -0.000000   0.000000  -0.000000
    34  H    0.000012   0.000000  -0.000036   0.000000  -0.000000   0.000000
              13         14         15         16         17         18
     1  C    0.010539   0.000000   0.000000   0.000000   0.333698   0.006446
     2  C   -0.000101  -0.000090   0.000005  -0.000005  -0.031061  -0.031144
     3  C   -0.075624   0.000000  -0.000000   0.000000  -0.045526   0.000774
     4  C    0.276940   0.000000   0.000000  -0.000000   0.004150   0.003551
     5  C    0.007502   0.000003  -0.000001  -0.000000   0.006837   0.344068
     6  C   -0.092057  -0.000000  -0.000000   0.000000   0.000620  -0.042681
     7  C   -0.000008   0.004119  -0.000150   0.000113  -0.015301  -0.015273
     8  C    0.000000  -0.055957  -0.004664   0.009084  -0.000336   0.006584
     9  C   -0.000000   0.000100   0.000025   0.007047   0.008228  -0.000317
    10  C    0.000000   0.005106  -0.000045  -0.087995   0.000220  -0.000000
    11  C    0.000000   0.211057  -0.041070  -0.072704   0.000009   0.000473
    12  C   -0.000000  -0.062109  -0.004148   0.279319  -0.000018  -0.000009
    13  N    7.106000  -0.000000   0.000000  -0.000000  -0.000140  -0.000147
    14  O   -0.000000   8.301712   0.245329  -0.010809   0.000000  -0.000012
    15  C    0.000000   0.245329   4.916319  -0.002118   0.000000   0.000000
    16  N   -0.000000  -0.010809  -0.002118   7.102587  -0.000000  -0.000000
    17  H   -0.000140   0.000000   0.000000  -0.000000   0.592142  -0.000157
    18  H   -0.000147  -0.000012   0.000000  -0.000000  -0.000157   0.597327
    19  H   -0.000000   0.001027   0.000421  -0.000160  -0.000003   0.003474
    20  H   -0.000000   0.000002  -0.000000  -0.000151   0.003779  -0.000001
    21  H   -0.000000  -0.000054  -0.000001  -0.009176   0.000009   0.000000
    22  H    0.310954  -0.000000  -0.000000   0.000000  -0.000002   0.000004
    23  H    0.315234   0.000000  -0.000000   0.000000   0.000005  -0.000017
    24  H   -0.000000  -0.031034   0.376885  -0.000053  -0.000000   0.000000
    25  H   -0.000000  -0.046886   0.365090   0.005207  -0.000000  -0.000000
    26  H   -0.000000  -0.040927   0.364521   0.000043  -0.000000  -0.000003
    27  H    0.000000   0.020907   0.000254   0.307035   0.000000   0.000000
    28  H    0.000000   0.000024   0.000010   0.315726   0.000000  -0.000000
    29  O   -0.009903   0.000000   0.000000  -0.000000  -0.007966   0.000002
    30  C    0.000087  -0.000000  -0.000000   0.000000   0.007304  -0.000000
    31  H   -0.009744   0.000000   0.000000  -0.000000   0.000013  -0.005111
    32  H   -0.000010   0.000000   0.000000  -0.000000  -0.000117  -0.000000
    33  H   -0.000005  -0.000000  -0.000000  -0.000000   0.002692   0.000000
    34  H   -0.000011  -0.000000  -0.000000  -0.000000   0.000373  -0.000000
              19         20         21         22         23         24
     1  C   -0.000252   0.005918   0.000007   0.000630  -0.000200  -0.000000
     2  C   -0.015244  -0.013400  -0.000225  -0.000050   0.000004  -0.000000
     3  C    0.000004   0.000398   0.000000  -0.016117   0.005864  -0.000000
     4  C   -0.000011  -0.000003  -0.000000  -0.023814  -0.021110  -0.000000
     5  C    0.006704  -0.000279   0.000002  -0.000163  -0.000051   0.000000
     6  C    0.000233  -0.000001  -0.000000   0.005998  -0.007906   0.000000
     7  C   -0.032823  -0.033425   0.002267   0.000000   0.000000   0.000003
     8  C    0.329127   0.005727   0.000660  -0.000000  -0.000000  -0.000021
     9  C    0.006963   0.345096  -0.030293  -0.000000   0.000000  -0.000000
    10  C    0.000261  -0.040452   0.345829  -0.000000  -0.000000   0.000008
    11  C   -0.042686   0.000854   0.004103   0.000000  -0.000000   0.003937
    12  C    0.006860   0.003511  -0.035019   0.000000   0.000000  -0.000102
    13  N   -0.000000  -0.000000  -0.000000   0.310954   0.315234  -0.000000
    14  O    0.001027   0.000002  -0.000054  -0.000000   0.000000  -0.031034
    15  C    0.000421  -0.000000  -0.000001  -0.000000  -0.000000   0.376885
    16  N   -0.000160  -0.000151  -0.009176   0.000000   0.000000  -0.000053
    17  H   -0.000003   0.003779   0.000009  -0.000002   0.000005  -0.000000
    18  H    0.003474  -0.000001   0.000000   0.000004  -0.000017   0.000000
    19  H    0.605822  -0.000143   0.000016   0.000000   0.000000  -0.000105
    20  H   -0.000143   0.590978  -0.004929   0.000000  -0.000000   0.000000
    21  H    0.000016  -0.004929   0.578645  -0.000000   0.000000  -0.000000
    22  H    0.000000   0.000000  -0.000000   0.364603  -0.019075  -0.000000
    23  H    0.000000  -0.000000   0.000000  -0.019075   0.365905   0.000000
    24  H   -0.000105   0.000000  -0.000000  -0.000000   0.000000   0.545675
    25  H    0.000154   0.000000   0.000009  -0.000000   0.000000  -0.033109
    26  H    0.000396  -0.000000  -0.000001   0.000000  -0.000000  -0.029261
    27  H   -0.000021   0.000004  -0.000095   0.000000  -0.000000   0.000028
    28  H    0.000005  -0.000017   0.007948  -0.000000   0.000000  -0.000001
    29  O    0.000000   0.000002   0.000000   0.022024   0.000109   0.000000
    30  C    0.000000  -0.000006  -0.000000  -0.000917   0.000004   0.000000
    31  H    0.000010   0.000000   0.000000  -0.000076   0.007757   0.000000
    32  H    0.000000  -0.000000   0.000000  -0.000101  -0.000001   0.000000
    33  H   -0.000000  -0.000073   0.000000   0.000079   0.000000   0.000000
    34  H    0.000000   0.000189  -0.000000   0.000068   0.000000  -0.000000
              25         26         27         28         29         30
     1  C   -0.000000  -0.000000  -0.000000  -0.000000  -0.061218  -0.006770
     2  C   -0.000001   0.000012   0.000001  -0.000000   0.003680   0.000228
     3  C    0.000000   0.000000   0.000000  -0.000000   0.265414  -0.043007
     4  C    0.000000   0.000000   0.000000   0.000000  -0.058552   0.004276
     5  C    0.000000  -0.000003  -0.000000   0.000000   0.000012   0.000017
     6  C   -0.000000  -0.000000  -0.000000  -0.000000   0.003753  -0.000113
     7  C    0.000068  -0.000530  -0.000014  -0.000005  -0.000047  -0.000008
     8  C    0.000007   0.004402   0.000190  -0.000194   0.000000   0.000000
     9  C    0.000006  -0.000028  -0.000207  -0.000025   0.000003  -0.000026
    10  C   -0.000614   0.000054   0.007527  -0.008081  -0.000000   0.000000
    11  C   -0.003593   0.002865  -0.016116   0.005672   0.000000  -0.000000
    12  C    0.003620   0.000167  -0.023610  -0.020800  -0.000000   0.000000
    13  N   -0.000000  -0.000000   0.000000   0.000000  -0.009903   0.000087
    14  O   -0.046886  -0.040927   0.020907   0.000024   0.000000  -0.000000
    15  C    0.365090   0.364521   0.000254   0.000010   0.000000  -0.000000
    16  N    0.005207   0.000043   0.307035   0.315726  -0.000000   0.000000
    17  H   -0.000000  -0.000000   0.000000   0.000000  -0.007966   0.007304
    18  H   -0.000000  -0.000003   0.000000  -0.000000   0.000002  -0.000000
    19  H    0.000154   0.000396  -0.000021   0.000005   0.000000   0.000000
    20  H    0.000000  -0.000000   0.000004  -0.000017   0.000002  -0.000006
    21  H    0.000009  -0.000001  -0.000095   0.007948   0.000000  -0.000000
    22  H   -0.000000   0.000000   0.000000  -0.000000   0.022024  -0.000917
    23  H    0.000000  -0.000000  -0.000000   0.000000   0.000109   0.000004
    24  H   -0.033109  -0.029261   0.000028  -0.000001   0.000000   0.000000
    25  H    0.608683  -0.040809  -0.003403   0.000057   0.000000   0.000000
    26  H   -0.040809   0.586233   0.000447  -0.000000  -0.000000   0.000000
    27  H   -0.003403   0.000447   0.370301  -0.018959  -0.000000  -0.000000
    28  H    0.000057  -0.000000  -0.018959   0.361784   0.000000   0.000000
    29  O    0.000000  -0.000000  -0.000000   0.000000   8.254208   0.244707
    30  C    0.000000   0.000000  -0.000000   0.000000   0.244707   4.899144
    31  H    0.000000   0.000000  -0.000000   0.000000  -0.000041   0.000002
    32  H    0.000000  -0.000000  -0.000000   0.000000  -0.032796   0.382108
    33  H    0.000000   0.000000   0.000000  -0.000000  -0.038660   0.366536
    34  H   -0.000000  -0.000000   0.000000  -0.000000  -0.039497   0.363343
              31         32         33         34
     1  C    0.000351   0.000187   0.002967   0.006932
     2  C    0.002673   0.000009  -0.000181  -0.000211
     3  C    0.004984   0.002303  -0.003622  -0.002521
     4  C   -0.038654   0.000025  -0.000213   0.000015
     5  C   -0.031300  -0.000000   0.000006  -0.000012
     6  C    0.349780   0.000006  -0.000008  -0.000026
     7  C   -0.000215  -0.000000  -0.000006   0.000012
     8  C    0.000006  -0.000000  -0.000000   0.000000
     9  C    0.000002   0.000000   0.000014  -0.000036
    10  C   -0.000000   0.000000  -0.000000   0.000000
    11  C    0.000000   0.000000   0.000000  -0.000000
    12  C   -0.000000  -0.000000  -0.000000   0.000000
    13  N   -0.009744  -0.000010  -0.000005  -0.000011
    14  O    0.000000   0.000000  -0.000000  -0.000000
    15  C    0.000000   0.000000  -0.000000  -0.000000
    16  N   -0.000000  -0.000000  -0.000000  -0.000000
    17  H    0.000013  -0.000117   0.002692   0.000373
    18  H   -0.005111  -0.000000   0.000000  -0.000000
    19  H    0.000010   0.000000  -0.000000   0.000000
    20  H    0.000000  -0.000000  -0.000073   0.000189
    21  H    0.000000   0.000000   0.000000  -0.000000
    22  H   -0.000076  -0.000101   0.000079   0.000068
    23  H    0.007757  -0.000001   0.000000   0.000000
    24  H    0.000000   0.000000   0.000000  -0.000000
    25  H    0.000000   0.000000   0.000000  -0.000000
    26  H    0.000000  -0.000000   0.000000  -0.000000
    27  H   -0.000000  -0.000000   0.000000   0.000000
    28  H    0.000000   0.000000  -0.000000  -0.000000
    29  O   -0.000041  -0.032796  -0.038660  -0.039497
    30  C    0.000002   0.382108   0.366536   0.363343
    31  H    0.581280  -0.000000  -0.000000  -0.000000
    32  H   -0.000000   0.535817  -0.032564  -0.029699
    33  H   -0.000000  -0.032564   0.582167  -0.040347
    34  H   -0.000000  -0.029699  -0.040347   0.581791
 Mulliken charges:
               1
     1  C   -0.313761
     2  C    0.107814
     3  C    0.337761
     4  C    0.324094
     5  C   -0.230555
     6  C   -0.229758
     7  C    0.093960
     8  C   -0.271900
     9  C   -0.219791
    10  C   -0.234349
    11  C    0.284557
    12  C    0.354259
    13  N   -0.839503
    14  O   -0.541507
    15  C   -0.216662
    16  N   -0.842990
    17  H    0.140546
    18  H    0.132169
    19  H    0.129969
    20  H    0.136421
    21  H    0.140296
    22  H    0.355956
    23  H    0.353477
    24  H    0.167149
    25  H    0.145514
    26  H    0.152420
    27  H    0.355730
    28  H    0.356854
    29  O   -0.545233
    30  C   -0.216909
    31  H    0.138283
    32  H    0.174834
    33  H    0.161218
    34  H    0.159636
 Sum of Mulliken charges =  -0.00000
 Mulliken charges with hydrogens summed into heavy atoms:
               1
     1  C   -0.173215
     2  C    0.107814
     3  C    0.337761
     4  C    0.324094
     5  C   -0.098386
     6  C   -0.091475
     7  C    0.093960
     8  C   -0.141931
     9  C   -0.083371
    10  C   -0.094053
    11  C    0.284557
    12  C    0.354259
    13  N   -0.130070
    14  O   -0.541507
    15  C    0.248422
    16  N   -0.130406
    29  O   -0.545233
    30  C    0.278780
 Electronic spatial extent (au):  <R**2>=           6330.4277
 Charge=             -0.0000 electrons
 Dipole moment (field-independent basis, Debye):
    X=              0.3559    Y=              1.9316    Z=              1.0233  Tot=              2.2146
 Quadrupole moment (field-independent basis, Debye-Ang):
   XX=            -68.2885   YY=            -85.4332   ZZ=           -109.5178
   XY=              5.1867   XZ=              4.9397   YZ=             -0.9015
 Traceless Quadrupole moment (field-independent basis, Debye-Ang):
   XX=             19.4580   YY=              2.3133   ZZ=            -21.7713
   XY=              5.1867   XZ=              4.9397   YZ=             -0.9015
 Octapole moment (field-independent basis, Debye-Ang**2):
  XXX=             34.3601  YYY=             13.2343  ZZZ=              7.7734  XYY=            -22.3248
  XXY=             16.5280  XXZ=             16.8613  XZZ=              4.9359  YZZ=             -0.2620
  YYZ=             -4.3389  XYZ=            -28.1062
 Hexadecapole moment (field-independent basis, Debye-Ang**3):
 XXXX=          -5189.2372 YYYY=          -1222.1562 ZZZZ=           -253.3775 XXXY=            164.2289
 XXXZ=             83.8390 YYYX=             69.3604 YYYZ=              7.1085 ZZZX=             -1.1578
 ZZZY=              0.1925 XXYY=           -982.6348 XXZZ=          -1164.2181 YYZZ=           -277.1963
 XXYZ=            -32.4453 YYXZ=              4.3467 ZZXY=            -32.2484
 N-N= 1.249595585089D+03 E-N=-4.368799971880D+03  KE= 7.957937202211D+02
 D1PCM: PCM CHGder 1st derivatives, ID1Alg=3 FixD1E=F DoIter=F DoCFld=F I1PDM=0.
 Calling FoFJK, ICntrl=      2127 FMM=F ISym2X=0 I1Cent= 0 IOpClX= 0 NMat=1 NMatS=1 NMatT=0.
 ***** Axes restored to original set *****
 -------------------------------------------------------------------
 Center     Atomic                   Forces (Hartrees/Bohr)
 Number     Number              X              Y              Z
 -------------------------------------------------------------------
      1        6           0.023616234    0.005795780    0.014768080
      2        6          -0.021718601   -0.005832141    0.040168787
      3        6           0.009571217    0.003778943   -0.038950503
      4        6          -0.007235769   -0.003849795    0.004908181
      5        6          -0.019431006   -0.002046802    0.001187388
      6        6           0.000331892   -0.002528060   -0.019208036
      7        6           0.016735983    0.003460498   -0.038970308
      8        6          -0.012854310   -0.018853058   -0.011480834
      9        6           0.013172895    0.015980642   -0.006066872
     10        6           0.002905030    0.004780957    0.020786433
     11        6          -0.007143207    0.018859646    0.040315063
     12        6           0.009996806   -0.004732791   -0.001195975
     13        7          -0.004437889    0.000643140    0.022163010
     14        8          -0.011807704    0.009239867   -0.006553256
     15        6           0.005036716   -0.018121348   -0.007115182
     16        7           0.002505584    0.000122008   -0.018868308
     17        1          -0.008214621   -0.002463077   -0.000202388
     18        1           0.010032296    0.002634914    0.003376768
     19        1           0.008004831    0.003972504    0.001845837
     20        1          -0.007249679   -0.007546980   -0.002787709
     21        1          -0.007541708   -0.006266220    0.001362524
     22        1          -0.017546311   -0.004587736    0.004128014
     23        1           0.011683933    0.005079042    0.015583045
     24        1           0.008547892    0.004654292    0.007308435
     25        1          -0.006890659   -0.009197373    0.005454527
     26        1           0.002556989    0.003502921   -0.011259675
     27        1           0.014050525    0.013817033   -0.005735897
     28        1          -0.008958399   -0.009214099   -0.016929691
     29        8          -0.018426130   -0.007779106    0.008599192
     30        6           0.011989124    0.005461880    0.001577836
     31        1           0.010477286    0.002784763   -0.000009414
     32        1          -0.005312270   -0.003584479   -0.011403437
     33        1          -0.003549904    0.012227476    0.001194526
     34        1           0.007102932   -0.010193238    0.002009840
 -------------------------------------------------------------------
 Cartesian Forces:  Max     0.040315063 RMS     0.012651745

 GradGradGradGradGradGradGradGradGradGradGradGradGradGradGradGradGradGrad
 Berny optimization.
 FormGI is forming the generalized inverse of G from B-inverse, IUseBI=4.
 Internal  Forces:  Max     0.054193842 RMS     0.009712713
 Search for a local minimum.
 Step number   1 out of a maximum of  171
 All quantities printed in internal units (Hartrees-Bohrs-Radians)
 Mixed Optimization -- RFO/linear search
 Second derivative matrix not updated -- first step.
 ITU=  0
     Eigenvalues ---    0.01598   0.01616   0.01910   0.01994   0.01999
     Eigenvalues ---    0.02019   0.02030   0.02045   0.02053   0.02072
     Eigenvalues ---    0.02074   0.02092   0.02105   0.02108   0.02121
     Eigenvalues ---    0.02151   0.02158   0.02161   0.02172   0.02176
     Eigenvalues ---    0.02195   0.02235   0.02248   0.02436   0.02436
     Eigenvalues ---    0.02441   0.02441   0.10331   0.10436   0.10735
     Eigenvalues ---    0.10840   0.15920   0.15966   0.15992   0.15994
     Eigenvalues ---    0.15995   0.15998   0.16000   0.16000   0.16000
     Eigenvalues ---    0.16000   0.16000   0.16000   0.16000   0.16000
     Eigenvalues ---    0.16000   0.16000   0.22341   0.22368   0.23397
     Eigenvalues ---    0.23462   0.24464   0.24570   0.24595   0.24972
     Eigenvalues ---    0.24983   0.24985   0.24996   0.24999   0.25000
     Eigenvalues ---    0.25000   0.32145   0.32161   0.32221   0.32234
     Eigenvalues ---    0.32295   0.32375   0.33356   0.33440   0.33642
     Eigenvalues ---    0.33660   0.33717   0.33973   0.41325   0.41490
     Eigenvalues ---    0.41918   0.41952   0.43447   0.44460   0.44634
     Eigenvalues ---    0.44639   0.44683   0.44697   0.44710   0.44848
     Eigenvalues ---    0.45108   0.45625   0.45731   0.45894   0.46020
     Eigenvalues ---    0.46591   0.46614   0.50761   0.51888   0.56372
     Eigenvalues ---    0.56451
 RFO step:  Lambda=-4.19625367D-02 EMin= 1.59751730D-02
 Linear search not attempted -- first point.
 Maximum step size (   0.300) exceeded in Quadratic search.
    -- Step size scaled by   0.847
 Iteration  1 RMS(Cart)=  0.06936008 RMS(Int)=  0.00112784
 Iteration  2 RMS(Cart)=  0.00173133 RMS(Int)=  0.00021663
 Iteration  3 RMS(Cart)=  0.00000190 RMS(Int)=  0.00021662
 Iteration  4 RMS(Cart)=  0.00000000 RMS(Int)=  0.00021662
 Variable       Old X    -DE/DX   Delta X   Delta X   Delta X     New X
                                 (Linear)    (Quad)   (Total)
    R1        2.65668   0.00620   0.00000   0.01043   0.01030   2.66698
    R2        2.65481  -0.00871   0.00000  -0.01506  -0.01502   2.63978
    R3        2.07375  -0.00843   0.00000  -0.01870  -0.01870   2.05505
    R4        2.65149   0.00713   0.00000   0.01192   0.01175   2.66324
    R5        2.67122   0.05419   0.00000   0.09635   0.09635   2.76757
    R6        2.64121   0.01408   0.00000   0.02409   0.02426   2.66547
    R7        2.59105  -0.00397   0.00000  -0.00612  -0.00612   2.58493
    R8        2.63086   0.01171   0.00000   0.01970   0.01983   2.65070
    R9        2.53933   0.04278   0.00000   0.05983   0.05983   2.59916
   R10        2.63571   0.00126   0.00000   0.00209   0.00205   2.63776
   R11        2.07908  -0.00970   0.00000  -0.02171  -0.02171   2.05738
   R12        2.08430  -0.01066   0.00000  -0.02405  -0.02405   2.06025
   R13        2.65497   0.00441   0.00000   0.00714   0.00703   2.66199
   R14        2.65253   0.00919   0.00000   0.01535   0.01520   2.66774
   R15        2.64670  -0.00521   0.00000  -0.00892  -0.00890   2.63780
   R16        2.07811  -0.00845   0.00000  -0.01888  -0.01888   2.05923
   R17        2.63647  -0.00106   0.00000  -0.00177  -0.00181   2.63466
   R18        2.07938  -0.00966   0.00000  -0.02163  -0.02163   2.05775
   R19        2.63148   0.01445   0.00000   0.02443   0.02454   2.65602
   R20        2.08285  -0.00985   0.00000  -0.02216  -0.02216   2.06069
   R21        2.63886   0.01596   0.00000   0.02732   0.02748   2.66635
   R22        2.58007   0.01448   0.00000   0.02187   0.02187   2.60194
   R23        2.53864   0.04221   0.00000   0.05895   0.05895   2.59760
   R24        1.92329  -0.00964   0.00000  -0.01671  -0.01671   1.90658
   R25        1.92403  -0.01103   0.00000  -0.01913  -0.01913   1.90489
   R26        2.65908   0.02194   0.00000   0.03820   0.03820   2.69728
   R27        2.10164  -0.01215   0.00000  -0.02814  -0.02814   2.07350
   R28        2.10418  -0.00972   0.00000  -0.02259  -0.02259   2.08159
   R29        2.10580  -0.01087   0.00000  -0.02534  -0.02534   2.08046
   R30        1.92397  -0.01053   0.00000  -0.01826  -0.01826   1.90571
   R31        1.92314  -0.01036   0.00000  -0.01795  -0.01795   1.90519
   R32        2.65646   0.01177   0.00000   0.02039   0.02039   2.67685
   R33        2.10308  -0.01305   0.00000  -0.03028  -0.03028   2.07280
   R34        2.10550  -0.01080   0.00000  -0.02516  -0.02516   2.08034
   R35        2.10442  -0.01036   0.00000  -0.02409  -0.02409   2.08033
    A1        2.17276  -0.00621   0.00000  -0.02082  -0.02091   2.15185
    A2        2.07457   0.00143   0.00000   0.00339   0.00344   2.07800
    A3        2.03535   0.00476   0.00000   0.01735   0.01740   2.05275
    A4        2.02506  -0.00145   0.00000  -0.00547  -0.00579   2.01927
    A5        2.13714  -0.00359   0.00000  -0.00977  -0.00961   2.12753
    A6        2.12085   0.00505   0.00000   0.01531   0.01547   2.13631
    A7        2.03122   0.01936   0.00000   0.05675   0.05693   2.08815
    A8        2.18925  -0.00165   0.00000  -0.00488  -0.00503   2.18421
    A9        2.06228  -0.01768   0.00000  -0.05139  -0.05155   2.01073
   A10        2.12210  -0.02118   0.00000  -0.06050  -0.06018   2.06191
   A11        2.08272   0.00268   0.00000   0.00730   0.00714   2.08986
   A12        2.07835   0.01850   0.00000   0.05322   0.05306   2.13140
   A13        2.12257   0.00257   0.00000   0.00759   0.00734   2.12991
   A14        2.13974  -0.00642   0.00000  -0.02515  -0.02507   2.11467
   A15        2.01892   0.00391   0.00000   0.01824   0.01834   2.03727
   A16        2.09207   0.00694   0.00000   0.02283   0.02292   2.11499
   A17        2.09815  -0.00551   0.00000  -0.01995  -0.01999   2.07816
   A18        2.09282  -0.00143   0.00000  -0.00288  -0.00293   2.08989
   A19        2.13513  -0.00027   0.00000   0.00023   0.00035   2.13548
   A20        2.12929   0.00251   0.00000   0.00830   0.00842   2.13771
   A21        2.01826  -0.00221   0.00000  -0.00818  -0.00848   2.00978
   A22        2.17108  -0.00421   0.00000  -0.01477  -0.01487   2.15621
   A23        2.11643  -0.00103   0.00000  -0.00579  -0.00575   2.11068
   A24        1.99537   0.00523   0.00000   0.02044   0.02047   2.01585
   A25        2.12351   0.00421   0.00000   0.01279   0.01247   2.13599
   A26        2.13694  -0.00694   0.00000  -0.02613  -0.02616   2.11078
   A27        2.01816   0.00294   0.00000   0.01567   0.01570   2.03386
   A28        2.09827   0.00521   0.00000   0.01750   0.01757   2.11584
   A29        2.09244  -0.00160   0.00000  -0.00458  -0.00463   2.08781
   A30        2.09208  -0.00361   0.00000  -0.01294  -0.01296   2.07912
   A31        2.04184   0.01605   0.00000   0.04991   0.04977   2.09161
   A32        2.10361  -0.00375   0.00000  -0.00895  -0.00949   2.09412
   A33        2.12271  -0.01163   0.00000  -0.03208  -0.03272   2.08999
   A34        2.10419  -0.01870   0.00000  -0.05261  -0.05244   2.05175
   A35        2.07971   0.01567   0.00000   0.04511   0.04489   2.12460
   A36        2.09820   0.00313   0.00000   0.00861   0.00837   2.10657
   A37        2.01892   0.00959   0.00000   0.04020   0.04020   2.05913
   A38        2.02168   0.01140   0.00000   0.04783   0.04783   2.06951
   A39        2.24257  -0.02099   0.00000  -0.08804  -0.08804   2.15453
   A40        1.98836   0.00467   0.00000   0.01355   0.01355   2.00191
   A41        1.87444  -0.00171   0.00000  -0.00719  -0.00726   1.86718
   A42        1.90338   0.01073   0.00000   0.04539   0.04513   1.94851
   A43        1.91458   0.00504   0.00000   0.02076   0.02052   1.93510
   A44        1.91243  -0.00340   0.00000  -0.01339  -0.01349   1.89894
   A45        1.91029  -0.00221   0.00000  -0.01011  -0.01015   1.90014
   A46        1.94726  -0.00817   0.00000  -0.03428  -0.03468   1.91259
   A47        2.01494   0.01047   0.00000   0.04395   0.04384   2.05878
   A48        2.01301   0.01261   0.00000   0.05292   0.05280   2.06581
   A49        2.25522  -0.02308   0.00000  -0.09676  -0.09687   2.15835
   A50        2.08468  -0.00533   0.00000  -0.01547  -0.01547   2.06921
   A51        1.86177  -0.00255   0.00000  -0.00929  -0.00930   1.85246
   A52        1.91727   0.00655   0.00000   0.02658   0.02649   1.94376
   A53        1.91102   0.00676   0.00000   0.02778   0.02769   1.93871
   A54        1.89717  -0.00093   0.00000  -0.00284  -0.00285   1.89433
   A55        1.89859  -0.00036   0.00000   0.00033   0.00031   1.89890
   A56        1.97448  -0.00927   0.00000  -0.04142  -0.04157   1.93291
    D1       -0.00187  -0.00008   0.00000  -0.00037  -0.00033  -0.00221
    D2        3.12251   0.00035   0.00000   0.00427   0.00424   3.12675
    D3        3.10454  -0.00024   0.00000  -0.00258  -0.00255   3.10199
    D4       -0.05426   0.00019   0.00000   0.00206   0.00203  -0.05224
    D5       -0.02549   0.00043   0.00000   0.00777   0.00795  -0.01754
    D6       -3.13443  -0.00058   0.00000  -0.00909  -0.00933   3.13943
    D7       -3.13262   0.00064   0.00000   0.01017   0.01037  -3.12225
    D8        0.04163  -0.00037   0.00000  -0.00669  -0.00690   0.03473
    D9        0.02455  -0.00064   0.00000  -0.00825  -0.00818   0.01637
   D10        3.09615   0.00051   0.00000   0.00459   0.00445   3.10060
   D11       -3.10000  -0.00097   0.00000  -0.01257  -0.01251  -3.11252
   D12       -0.02840   0.00018   0.00000   0.00026   0.00012  -0.02828
   D13        2.85454  -0.00240   0.00000  -0.03188  -0.03183   2.82270
   D14       -0.32288  -0.00137   0.00000  -0.01987  -0.01990  -0.34278
   D15       -0.30520  -0.00202   0.00000  -0.02720  -0.02718  -0.33238
   D16        2.80057  -0.00099   0.00000  -0.01520  -0.01524   2.78533
   D17        0.03154  -0.00063   0.00000  -0.00860  -0.00861   0.02292
   D18       -3.11739  -0.00036   0.00000  -0.00639  -0.00650  -3.12388
   D19       -3.14023   0.00056   0.00000   0.00771   0.00766  -3.13257
   D20       -0.00597   0.00083   0.00000   0.00991   0.00978   0.00381
   D21        0.14568  -0.00006   0.00000  -0.00257  -0.00285   0.14283
   D22       -2.96273  -0.00172   0.00000  -0.02155  -0.02126  -2.98399
   D23       -0.01076   0.00027   0.00000   0.00154   0.00139  -0.00937
   D24       -3.13445   0.00023   0.00000   0.00124   0.00111  -3.13334
   D25        3.13814   0.00006   0.00000  -0.00047  -0.00058   3.13757
   D26        0.01445   0.00002   0.00000  -0.00077  -0.00085   0.01360
   D27        0.01192   0.00022   0.00000   0.00255   0.00253   0.01445
   D28       -3.13284  -0.00003   0.00000  -0.00060  -0.00062  -3.13346
   D29       -3.13682   0.00031   0.00000   0.00422   0.00424  -3.13258
   D30        0.00161   0.00007   0.00000   0.00107   0.00109   0.00270
   D31       -0.01892   0.00069   0.00000   0.00810   0.00807  -0.01085
   D32        3.10483   0.00069   0.00000   0.00823   0.00817   3.11300
   D33       -3.09509   0.00001   0.00000  -0.00226  -0.00240  -3.09749
   D34        0.02866   0.00000   0.00000  -0.00214  -0.00230   0.02636
   D35        3.13982   0.00007   0.00000   0.00165   0.00168   3.14150
   D36       -0.02969  -0.00029   0.00000  -0.00391  -0.00392  -0.03361
   D37        0.03193  -0.00099   0.00000  -0.00995  -0.00976   0.02217
   D38       -3.13759  -0.00134   0.00000  -0.01551  -0.01535   3.13025
   D39       -3.05338  -0.00226   0.00000  -0.02805  -0.02781  -3.08118
   D40       -0.01899   0.00031   0.00000   0.00015  -0.00014  -0.01913
   D41        0.05464  -0.00127   0.00000  -0.01667  -0.01653   0.03811
   D42        3.08903   0.00130   0.00000   0.01154   0.01114   3.10017
   D43       -0.12901   0.00173   0.00000   0.03086   0.03135  -0.09766
   D44       -3.08820  -0.00108   0.00000  -0.01926  -0.01981  -3.10801
   D45        3.03877   0.00214   0.00000   0.03640   0.03701   3.07578
   D46        0.07958  -0.00067   0.00000  -0.01371  -0.01415   0.06543
   D47       -0.03974   0.00167   0.00000   0.01727   0.01708  -0.02266
   D48        3.07202   0.00162   0.00000   0.01618   0.01591   3.08793
   D49       -3.08101  -0.00015   0.00000  -0.00668  -0.00701  -3.08801
   D50        0.03076  -0.00020   0.00000  -0.00778  -0.00817   0.02258
   D51       -0.06336   0.00144   0.00000   0.01171   0.01117  -0.05220
   D52        3.12809  -0.00075   0.00000  -0.01410  -0.01437   3.11372
   D53        3.10805   0.00147   0.00000   0.01266   0.01219   3.12024
   D54        0.01633  -0.00073   0.00000  -0.01315  -0.01335   0.00298
   D55        0.14167  -0.00242   0.00000  -0.03254  -0.03245   0.10922
   D56       -3.05032   0.00015   0.00000  -0.00543  -0.00611  -3.05643
   D57        3.09872   0.00135   0.00000   0.02088   0.02116   3.11988
   D58       -0.09326   0.00392   0.00000   0.04799   0.04749  -0.04577
   D59       -1.75233   0.00542   0.00000   0.06347   0.06277  -1.68956
   D60        1.58024  -0.00049   0.00000   0.00220   0.00291   1.58315
   D61        3.12137   0.00300   0.00000   0.04039   0.04073  -3.12108
   D62       -0.01643   0.00090   0.00000   0.01359   0.01393  -0.00249
   D63        0.02947   0.00145   0.00000   0.01647   0.01612   0.04559
   D64       -3.10833  -0.00065   0.00000  -0.01034  -0.01068  -3.11901
   D65        3.04007   0.00016   0.00000   0.00738   0.00733   3.04740
   D66       -1.17204   0.00100   0.00000   0.01215   0.01192  -1.16012
[...]
 47701,-0.00315566,-0.00014274,0.00005480,-0.00035016,-0.00013068,-0.00
 002396,0.00000633,0.00007617,-0.00004347,-0.00003337,0.00009738,0.0000
 2743,0.00001549,-0.00003253,0.00054708,-0.00043169,-0.00005449,-0.0001
 1616,0.00000697,-0.00069520,0.00000046,-0.00001472,-0.00000830,0.00000
 911,-0.00000302,-0.00000134,0.00000504,-0.00000609,0.00000709,-0.00001
 163,0.00004200,0.00000864,-0.00004413,0.00001263,-0.00000165,0.1068308
 1,0.09567731,-0.03006998,-0.00633253,-0.04164490,0.00292206,0.00044620
 ,-0.00102854,-0.05704700,-0.01262389,-0.22333190,-0.01580104,-0.002942
 84,-0.00787455,0.00009859,-0.00059250,-0.00795412,0.00621116,0.0014294
 9,0.00566041,-0.00252891,-0.00064020,0.00041652,0.00054966,0.00031721,
 -0.00086721,0.00004224,-0.00011079,-0.00019681,-0.00007363,-0.00015737
 ,-0.00043318,0.00045727,0.00043832,0.00025912,-0.00039219,-0.00000009,
 0.00088279,0.00369214,-0.00290952,0.00705513,-0.00013471,-0.00060443,-
 0.00065166,-0.00018441,0.00038396,0.00003396,0.00067874,-0.00025097,-0
 .00111498,-0.00025842,-0.00020048,0.00247010,-0.00036836,0.00012815,-0
 .00028899,-0.00004148,0.00014129,0.00026598,-0.00013577,-0.00015642,0.
 00019914,0.00010671,0.00007050,-0.00014160,-0.00051284,0.00156461,0.00
 118132,0.00096950,0.00136888,0.00058670,0.00000596,-0.00007580,-0.0000
 3747,0.00004536,-0.00002167,-0.00000499,0.00002268,-0.00003444,0.00003
 442,-0.00004377,0.00015223,0.00003314,-0.00016492,0.00004972,-0.000010
 67,0.07707886,0.01710973,0.35088876,0.00570463,0.00130653,0.00400183,-
 0.00037413,-0.00017218,0.00084113,-0.04284397,-0.00980806,-0.01709132,
 0.00502575,0.00003392,0.00370656,0.00023093,0.00020315,0.00317330,-0.0
 0152114,-0.00067451,-0.00215070,0.00083026,0.00018390,-0.00041773,-0.0
 0024341,-0.00007938,0.00034153,0.00002521,0.00006337,0.00016275,0.0000
 2529,0.00011177,0.00024694,-0.00026011,-0.00030510,-0.00011257,0.00021
 369,0.00000200,-0.00049733,0.00075236,0.00108122,-0.00318163,0.0000762
 2,0.00030591,0.00031798,0.00009487,-0.00019690,-0.00002099,-0.00038327
 ,0.00014293,0.00062674,-0.00085501,0.00002808,0.00000811,0.00006758,0.
 00002268,0.00023932,0.00000379,-0.00006803,-0.00013180,0.00006888,0.00
 004177,-0.00005842,-0.00005608,-0.00003666,0.00007358,-0.00117939,-0.0
 0030653,0.00113506,0.00008017,-0.00024991,0.00024361,-0.00000300,0.000
 03804,0.00001882,-0.00002351,0.00000997,0.00000373,-0.00001090,0.00001
 811,-0.00001678,0.00002716,-0.00008906,-0.00001695,0.00009426,-0.00002
 840,0.00000721,-0.19789417,-0.03665291,0.01485625,0.46669324,0.0017227
 5,-0.00007728,0.00139296,-0.00042810,0.00034828,0.00000616,-0.00893663
 ,-0.00791240,-0.00457001,0.00085848,0.00257943,0.00062108,0.00012497,0
 .00050983,0.00066885,-0.00051276,0.00098098,-0.00032600,0.00019701,-0.
 00004432,-0.00004087,-0.00008295,-0.00002707,0.00004567,0.00003693,0.0
 0000711,0.00011939,0.00000872,0.00001353,0.00003256,-0.00008528,-0.000
 08095,-0.00001174,0.00007566,0.00002194,-0.00011753,0.00078069,0.00040
 564,-0.00041866,0.00002195,0.00007186,0.00008269,0.00002251,-0.0000463
 4,-0.00000723,-0.00009990,0.00003443,0.00015935,-0.00028091,-0.0005809
 3,-0.00018701,0.00008728,-0.00028236,0.00005762,0.00000312,-0.00001589
 ,-0.00004227,0.00000793,0.00003779,-0.00000318,-0.00001555,-0.00001084
 ,0.00002133,-0.00097347,-0.00073441,0.00059007,0.00013256,0.00004200,0
 .00009149,-0.00000019,0.00000938,0.00000511,-0.00000538,0.00000235,0.0
 0000019,-0.00000341,0.00000401,-0.00000364,0.00000615,-0.00002113,-0.0
 0000494,0.00002392,-0.00000720,0.00000202,-0.03809369,-0.07037356,0.00
 378448,-0.03133185,0.57111224,-0.00435220,-0.00127993,-0.00175531,-0.0
 0020967,-0.00003673,0.00055723,-0.03644750,-0.00979886,0.00213687,-0.0
 0086627,-0.00023518,-0.00728571,-0.00041169,-0.00016804,-0.00009197,-0
 .00114740,-0.00013377,0.00052956,-0.00002930,0.00004262,0.00014664,0.0
 0001729,-0.00001051,-0.00002481,-0.00000504,-0.00004379,-0.00004241,0.
 00001181,-0.00000829,-0.00003699,0.00003755,0.00004815,0.00001709,-0.0
 0002937,0.00000068,0.00006810,0.00101763,-0.00044419,0.00077287,-0.000
 00853,-0.00003568,-0.00003585,-0.00001202,0.00002446,0.00000302,0.0000
 5465,-0.00001804,-0.00008648,-0.00192351,-0.00051023,-0.00203603,-0.00
 002749,0.00001109,-0.00005774,0.00000268,0.00001569,0.00002088,-0.0000
 0196,0.00002053,0.00000436,0.00000796,0.00000450,-0.00001162,-0.000996
 05,0.00042085,0.00079521,0.00013931,0.00025912,0.00031630,0.00000053,-
 0.00000449,-0.00000204,0.00000297,-0.00000106,-0.00000090,0.00000104,-
 0.00000220,0.00000213,-0.00000415,0.00001269,0.00000231,-0.00001362,0.
 00000380,-0.00000171,0.04535966,0.01215452,-0.09444398,0.03186071,0.00
 836299,0.62529485,0.00029189,0.00014170,-0.00059700,0.00205656,-0.0009
 0419,0.00174780,0.00076035,-0.00116017,-0.00296883,-0.01689913,-0.0039
 8612,0.00698572,-0.00598610,-0.00140827,-0.00002043,-0.31307514,-0.059
 08120,0.04941579,-0.00030644,-0.00029174,-0.00036744,-0.00007811,-0.00
 000938,0.00005487,-0.00000348,0.00011727,0.00020129,-0.00001780,0.0000
 0140,0.00010611,-0.00009664,-0.00012809,-0.00003768,0.00007849,-0.0000
 0736,-0.00019591,0.00153461,0.00099243,0.00102096,0.00003139,0.0001111
 2,0.00011232,0.00003275,-0.00007034,-0.00000764,-0.00014096,0.00005493
 ,0.00023169,-0.00013607,0.00008735,0.00005368,0.00076105,0.00098798,0.
 00013808,-0.00000246,-0.00001979,-0.00003148,0.00000317,0.00001607,-0.
 00002812,-0.00001930,-0.00001682,0.00003928,0.00019382,0.00003776,0.00
 006092,-0.00020379,-0.00016503,-0.00098024,-0.00000090,0.00001364,0.00
 000714,-0.00000774,0.00000350,0.00000083,-0.00000449,0.00000678,-0.000
 00587,0.00000933,-0.00003246,-0.00000636,0.00003428,-0.00001005,0.0000
 0122,-0.00173284,-0.00046239,-0.00007937,0.00044906,0.00020204,-0.0003
 5828,0.33275702,0.00010015,-0.00043974,-0.00017499,-0.00098119,0.00612
 498,0.00043856,-0.00114652,0.00615822,-0.00090514,-0.00507454,0.002372
 52,0.00122804,-0.00085588,0.00082857,-0.00004852,-0.05876542,-0.044415
 30,0.01042747,-0.00017408,0.00065165,-0.00016640,0.00001811,-0.0000966
 8,-0.00000426,0.00009582,-0.00005751,-0.00003819,0.00003778,-0.0000171
 3,-0.00004495,-0.00002209,-0.00005001,0.00001791,0.00004721,0.00003546
 ,-0.00005304,0.00006992,-0.00300863,0.00068362,0.00000903,0.00002434,0
 .00002696,0.00000727,-0.00001683,-0.00000308,-0.00004907,0.00001291,0.
 00007816,0.00009747,-0.00056158,0.00000970,0.00093231,-0.00366169,0.00
 005111,0.00000298,0.00003711,-0.00005251,-0.00001306,-0.00002178,-0.00
 002117,-0.00000897,0.00000429,-0.00000113,0.00006949,-0.00056624,-0.00
 019472,0.00088271,0.00017076,-0.00052256,-0.00000002,0.00000325,0.0000
 0181,-0.00000178,0.00000056,0.00000032,-0.00000101,0.00000156,-0.00000
 101,0.00000313,-0.00001185,-0.00000123,0.00001314,-0.00000251,0.000002
 45,-0.00045271,0.00002405,-0.00001104,0.00015841,-0.00031702,-0.000079
 62,0.06505416,0.03681628,-0.00053052,-0.00014144,-0.00109614,0.0005723
 3,-0.00000923,-0.00527077,-0.00154151,-0.00046056,-0.00368744,-0.02395
 044,-0.00491259,0.00719310,0.03041970,0.00623759,-0.00107497,0.0499566
 8,0.00992236,-0.06986236,0.00134052,0.00038336,0.00050915,-0.00001425,
 0.00008946,0.00003020,0.00003503,-0.00013488,-0.00044770,0.00003279,0.
 00009974,-0.00005769,0.00009537,0.00011610,0.00001635,-0.00008639,-0.0
 0002562,0.00018542,-0.00049068,0.00019981,0.00263877,-0.00003037,-0.00
 010891,-0.00011348,-0.00003222,0.00006891,0.00000667,0.00012688,-0.000
 04559,-0.00021323,0.00009511,0.00003583,0.00013451,-0.00042039,-0.0000
 5595,0.00129087,-0.00000354,-0.00002715,0.00002705,0.00001586,-0.00000
 153,0.00003867,0.00002537,0.00002058,-0.00006171,0.00011128,0.00002732
 ,0.00015381,0.00063598,-0.00019717,-0.00052824,0.00000094,-0.00001371,
 -0.00000705,0.00000758,-0.00000365,-0.00000068,0.00000450,-0.00000665,
 0.00000583,-0.00000714,0.00002848,0.00000442,-0.00003262,0.00000863,-0
 .00000124,-0.00151229,-0.00039617,0.00054971,-0.00005801,0.00001860,-0
 .00029196,-0.05459906,-0.01067249,0.06988761,-0.00057036,-0.00008870,0
 .00097388,0.00008138,-0.00001799,-0.00035442,-0.00313939,-0.00132806,0
 .00395035,-0.00082838,-0.00029652,-0.00218189,0.00014256,-0.00000616,-
 0.00022373,-0.00035384,-0.00002373,0.00066180,-0.00010323,-0.00002157,
 0.00005258,0.00003225,0.00000786,-0.00004574,-0.00000234,-0.00001096,-
 0.00002318,-0.00000202,-0.00001659,-0.00003422,0.00003112,0.00004290,0
 .00001482,-0.00002817,0.00000307,0.00006683,0.00004152,-0.00009734,0.0
 0023338,-0.00000949,-0.00003838,-0.00003921,-0.00001169,0.00002464,0.0
 0000267,0.00005226,-0.00002000,-0.00008482,0.00059959,0.00020216,-0.00
 012500,0.00001388,0.00001855,-0.00005077,0.00000041,0.00000683,0.00001
 643,-0.00000568,-0.00000212,0.00000834,0.00000736,0.00000430,-0.000008
 80,0.00002084,0.00004457,-0.00004583,-0.00000066,0.00004045,0.00001962
 ,0.00000034,-0.00000476,-0.00000241,0.00000286,-0.00000120,-0.00000044
 ,0.00000141,-0.00000224,0.00000207,-0.00000371,0.00001220,0.00000233,-
 0.00001262,0.00000378,-0.00000090,-0.02976736,-0.00838526,-0.03470568,
 -0.08047325,-0.00906355,-0.08440872,-0.00015294,-0.00002002,-0.0001247
 5,0.10388675,-0.00017706,0.00031667,0.00026776,-0.00004670,0.00011866,
 -0.00010539,-0.00085315,0.00028418,0.00109749,-0.00032047,0.00020314,-
 0.00058786,0.00006229,-0.00001738,-0.00007858,-0.00008919,-0.00000738,
 0.00020414,-0.00003145,0.00001825,0.00001106,0.00000858,0.00000294,-0.
 00000727,-0.00000720,-0.00000787,-0.00001494,0.00000042,-0.00000168,-0
 .00000585,0.00001234,0.00001279,0.00000172,-0.00001102,-0.00000099,0.0
 0001878,0.00002883,-0.00001303,0.00006109,-0.00000287,-0.00001041,-0.0
 0001029,-0.00000311,0.00000660,0.00000081,0.00001562,-0.00000559,-0.00
 002413,0.00026372,-0.00033754,0.00003202,0.00000651,-0.00001912,-0.000
 01244,-0.00000027,0.00000204,0.00000440,0.00000167,0.00000002,-0.00000
 138,0.00000224,0.00000111,-0.00000264,-0.00001021,0.00002266,-0.000029
 54,0.00000127,-0.00000924,0.00001468,0.00000004,-0.00000129,-0.0000007
 0,0.00000074,-0.00000030,-0.00000005,0.00000044,-0.00000058,0.00000055
 ,-0.00000103,0.00000344,0.00000082,-0.00000367,0.00000113,-0.00000031,
 -0.00817241,-0.00172381,-0.00920450,-0.00923697,-0.05652684,-0.0272337
 0,-0.00003103,-0.00005064,-0.00003217,0.01696736,0.05307164,0.00039884
 ,0.00000613,-0.00063785,-0.00019964,-0.00004523,0.00028561,0.00276795,
 0.00069253,0.00201072,0.00009977,-0.00001836,0.00006529,-0.00009551,-0
 .00002722,-0.00015027,0.00001825,0.00001298,-0.00000425,-0.00001288,-0
 .00001658,0.00004671,0.00002390,0.00001022,-0.00001027,-0.00000135,0.0
 0001347,-0.00001420,-0.00000943,-0.00001451,-0.00002087,0.00003003,0.0
 0003543,0.00000205,-0.00002472,-0.00000554,0.00005047,-0.00014023,-0.0
 0003023,0.00016606,-0.00000953,-0.00003201,-0.00003221,-0.00000933,0.0
 0001987,0.00000234,0.00003779,-0.00001475,-0.00006388,-0.00059265,-0.0
 0006802,0.00027941,-0.00004782,-0.00000384,-0.00000620,-0.00000253,0.0
 0000212,0.00000814,-0.00000960,-0.00002081,0.00001309,0.00000542,0.000
 00406,-0.00000719,0.00011236,-0.00001419,-0.00010343,-0.00001105,0.000
 00498,-0.00002603,0.00000014,-0.00000395,-0.00000209,0.00000227,-0.000
 00096,-0.00000012,0.00000131,-0.00000195,0.00000159,-0.00000246,0.0000
 0880,0.00000155,-0.00000954,0.00000302,-0.00000030,0.00191608,0.000834
 77,0.00920968,-0.09668094,-0.03053522,-0.29069382,-0.00000849,0.000001
 60,0.00001805,0.10184259,0.03239273,0.30424323,0.00044757,-0.00011040,
 -0.00060971,-0.00041235,-0.00039611,-0.00038529,0.00527223,0.00243402,
 0.00701305,-0.00159959,-0.00084520,-0.00066515,0.00043707,0.00006397,-
 0.00078386,0.00027084,-0.00013290,0.00095557,-0.00009201,-0.00001087,0
 .00009295,0.00002428,0.00000204,-0.00005440,0.00001480,-0.00000229,-0.
 00002853,-0.00000889,-0.00001523,-0.00003058,0.00002823,0.00004614,0.0
 0002047,-0.00002710,0.00000573,0.00005976,-0.00019501,-0.00004732,0.00
 003180,-0.00000863,-0.00004072,-0.00003914,-0.00001248,0.00002587,0.00
 000231,0.00005233,-0.00002140,-0.00008293,-0.00059833,0.00072151,-0.00
 101634,-0.00000300,0.00006830,-0.00004370,0.00000293,0.00000804,0.0000
 2106,-0.00000584,-0.00000796,0.00000511,0.00000713,0.00000508,-0.00000
 948,0.00063929,0.00016309,-0.00043641,-0.00007066,-0.00003223,-0.00011
 072,0.00000050,-0.00000493,-0.00000235,0.00000307,-0.00000128,-0.00000
 065,0.00000125,-0.00000239,0.00000230,-0.00000343,0.00001173,0.0000022
 6,-0.00001236,0.00000380,-0.00000072,-0.03797728,0.01722741,0.01638114
 ,-0.10335130,0.08569287,0.05336624,-0.00008999,0.00006228,-0.00003111,
 0.00839064,-0.00906795,-0.00484494,0.12564657,0.00096151,-0.00001196,-
 0.00096583,-0.00038313,-0.00023698,0.00024617,0.00031712,0.00125010,0.
 00054527,-0.00003718,-0.00048206,0.00032236,0.00012115,-0.00007777,-0.
 00011906,-0.00004129,-0.00005754,0.00011566,0.00000789,0.00000125,0.00
 002963,0.00001579,0.00001110,0.00000159,0.00000055,0.00001687,-0.00001
 665,-0.00000879,-0.00000439,-0.00000375,0.00001754,0.00001956,-0.00000
 473,-0.00001640,-0.00000823,0.00002381,-0.00013604,0.00006571,-0.00013
 032,-0.00000578,-0.00001684,-0.00001750,-0.00000426,0.00000968,0.00000
 113,0.00001835,-0.00000715,-0.00003197,-0.00062736,0.00013401,0.000384
 71,-0.00006544,0.00004608,0.00000755,-0.00000238,-0.00000141,0.0000024
 7,0.00000008,-0.00002758,0.00000885,0.00000296,0.00000229,-0.00000413,
 0.00008539,0.00002418,-0.00005207,-0.00002183,-0.00003353,-0.00000494,
 -0.00000006,-0.00000211,-0.00000121,0.00000097,-0.00000050,0.00000024,
 0.00000086,-0.00000093,0.00000072,-0.00000091,0.00000398,0.00000077,-0
 .00000439,0.00000140,0.00000005,-0.00647786,0.01425502,0.00695856,0.08
 972265,-0.19705012,-0.09246836,-0.00000605,0.00003943,0.00000710,0.000
 57757,-0.00123855,-0.00043083,-0.09644983,0.20266365,0.00059295,0.0006
 1983,0.00017285,-0.00022513,-0.00057136,-0.00018666,-0.00162892,0.0006
 6674,-0.00050969,-0.00012824,-0.00018532,0.00058525,0.00035964,0.00005
 444,0.00012246,-0.00004032,-0.00007626,0.00012604,0.00006156,0.0000520
 0,-0.00003562,-0.00003048,-0.00000926,0.00002695,0.00002059,-0.0000014
 8,0.00001876,0.00000459,0.00001260,0.00002291,-0.00003690,-0.00003771,
 -0.00000822,0.00002929,0.00000698,-0.00005982,0.00013153,0.00016058,-0
 .00040620,0.00001078,0.00003704,0.00003883,0.00001139,-0.00002429,-0.0
 0000266,-0.00004529,0.00001619,0.00007471,-0.00125703,0.00080554,-0.00
 093082,0.00000559,0.00007878,0.00002358,0.00000279,-0.00000782,-0.0000
 1465,0.00000148,0.00001810,-0.00001591,-0.00000606,-0.00000456,0.00000
 809,-0.00016081,-0.00004845,0.00014063,0.00001473,-0.00005138,0.000030
 41,-0.00000028,0.00000464,0.00000232,-0.00000279,0.00000120,0.00000030
 ,-0.00000137,0.00000235,-0.00000209,0.00000328,-0.00001066,-0.00000198
 ,0.00001123,-0.00000342,0.00000086,0.00859950,0.00039860,0.00032750,0.
 05624730,-0.09233952,-0.11311855,0.00005237,0.00002788,0.00001101,0.01
 388763,-0.02249576,-0.01200918,-0.06768253,0.10003242,0.11661888,0.000
 84926,0.00057176,-0.00087448,-0.00081847,0.00011019,-0.00033840,0.0058
 4942,-0.00012428,0.00645422,-0.00171092,0.00025650,-0.00047751,0.00051
 223,0.00013663,-0.00080964,0.00016424,0.00027475,0.00100059,-0.0000918
 2,-0.00003367,0.00012793,0.00002689,0.00000471,-0.00006299,0.00000891,
 -0.00001716,-0.00001220,-0.00000626,-0.00001423,-0.00003605,0.00002486
 ,0.00004627,0.00002249,-0.00002497,0.00000663,0.00006974,0.00001853,0.
 00003215,0.00008243,-0.00001064,-0.00004338,-0.00004256,-0.00001268,0.
 00002692,0.00000265,0.00005398,-0.00002159,-0.00008819,-0.00035221,-0.
 00093190,-0.00050845,-0.00000396,-0.00006913,-0.00003265,0.00000324,0.
 00000465,0.00001766,-0.00000661,-0.00000533,0.00001573,0.00000763,0.00
 000488,-0.00000953,0.00028215,-0.00016706,-0.00028484,-0.00001689,-0.0
 0003190,-0.00009034,0.00000037,-0.00000525,-0.00000272,0.00000315,-0.0
 0000137,-0.00000042,0.00000154,-0.00000237,0.00000224,-0.00000392,0.00
 001262,0.00000238,-0.00001259,0.00000368,-0.00000068,-0.02031888,-0.03
 640530,0.01842417,-0.05099074,-0.00009193,-0.00062725,-0.00003944,-0.0
 0009504,-0.00001063,0.00215999,0.01069369,-0.00454404,0.00322953,0.012
 43862,-0.00880206,0.06122508,-0.00051585,-0.00006321,0.00046384,0.0000
 2114,-0.00000166,-0.00037499,0.00220986,0.00105860,0.00297943,-0.00079
 950,-0.00027658,-0.00066779,0.00018714,-0.00007571,-0.00037003,0.00017
 869,0.00011088,0.00043667,-0.00005651,0.00001291,0.00003170,0.00000349
 ,-0.00000629,-0.00002808,-0.00001372,-0.00002510,-0.00002933,0.0000112
 9,0.00000590,-0.00000556,-0.00000050,0.00000577,0.00001044,-0.00000062
 ,0.00000255,0.00000988,0.00010225,0.00001347,0.00016280,-0.00000008,-0
 .00000316,-0.00000454,-0.00000128,0.00000205,0.00000076,0.00000839,-0.
 00000133,-0.00001146,0.00041517,-0.00028140,-0.00065550,0.00004353,0.0
 0002933,-0.00002511,0.00000582,0.00000748,0.00001050,0.00000801,0.0000
 1343,-0.00001426,0.00000133,0.00000104,-0.00000244,0.00012498,0.000007
 28,-0.00013651,0.00000256,-0.00000772,-0.00003572,0.00000001,-0.000000
 44,-0.00000033,0.00000041,-0.00000017,-0.00000013,0.00000019,0.0000001
 4,0.00000007,-0.00000098,0.00000181,0.00000062,-0.00000156,0.00000026,
 -0.00000068,-0.01323032,-0.00384353,0.00252617,-0.00423795,-0.24207214
 ,0.11113097,-0.00003762,-0.00001081,-0.00001841,0.00148888,0.00590698,
 -0.00275852,0.00064713,-0.01928664,0.01287136,0.01343622,0.25877602,0.
 00099394,-0.00010089,0.00022595,-0.00050176,0.00034126,-0.00032279,-0.
 00102308,-0.00161345,-0.00021223,-0.00023641,0.00003297,0.00065743,0.0
 0039467,0.00017357,0.00011149,-0.00005794,0.00002191,0.00017177,0.0000
 6296,-0.00002479,-0.00001397,-0.00002417,-0.00001021,0.00001220,0.0000
 0395,-0.00000263,0.00002940,0.00000274,0.00001350,0.00002591,-0.000040
 96,-0.00003776,-0.00000484,0.00002892,0.00001054,-0.00005848,0.0000640
 9,0.00010366,-0.00044179,0.00001033,0.00003658,0.00003836,0.00001111,-
 0.00002328,-0.00000266,-0.00004253,0.00001441,0.00007272,-0.00064342,-
 0.00126859,-0.00072331,0.00004151,-0.00007786,0.00002356,0.00000188,-0
 .00000935,-0.00001068,0.00001526,0.00000763,0.00000015,-0.00000721,-0.
 00000439,0.00000967,-0.00006849,-0.00003266,0.00012340,0.00000016,-0.0
 0002519,0.00000770,-0.00000025,0.00000463,0.00000234,-0.00000273,0.000
 00116,0.00000023,-0.00000142,0.00000219,-0.00000193,0.00000287,-0.0000
 1000,-0.00000169,0.00001094,-0.00000339,0.00000090,0.00755713,0.004128
 91,-0.00002885,0.00232269,0.11254521,-0.12064952,0.00006212,0.00000044
 ,0.00001346,0.00072520,0.02573944,-0.01262183,-0.00109549,-0.01443773,
 0.00894971,-0.00856660,-0.12549583,0.12461821\\0.00000153,0.00000185,0
 .00001123,-0.00000251,-0.00000181,-0.00001184,0.00000420,0.00000225,-0
 .00001375,-0.00001284,-0.00000480,0.00002110,0.00000166,-0.00000177,0.
 00000245,0.00000337,-0.00000158,-0.00000191,0.00000041,0.00000292,0.00
 001005,-0.00000300,-0.00000389,-0.00000775,-0.00000106,-0.00000006,-0.
 00000243,-0.00000095,-0.00000046,-0.00000342,0.00000917,0.00000781,0.0
 0001451,-0.00000306,0.00000293,0.00000615,0.00000720,-0.00000068,-0.00
 002061,-0.00000679,-0.00000624,-0.00001045,0.00000275,0.00000006,0.000
 00289,0.00000313,-0.00000325,-0.00000042,0.00000086,0.00000144,0.00000
 124,0.00000026,-0.00000248,0.00000029,0.00000133,-0.00000094,-0.000000
 48,-0.00000131,0.00000035,0.00000016,-0.00000191,0.00000161,0.00000112
 ,-0.00000332,-0.00000069,0.00000275,0.00000124,-0.00000071,0.00000449,
 0.00000212,0.00000005,-0.00000028,0.00000130,0.00000051,0.00000002,0.0
 0000233,-0.00000036,-0.00000091,-0.00000007,0.00000416,-0.00000180,-0.
 00000353,0.00000165,-0.00000313,0.00000182,-0.00000367,0.00000334,-0.0
 0000242,0.00000386,0.00000011,0.00000035,-0.00000252,0.00000012,-0.000
 00136,0.00000199,-0.00000032,-0.00000002,0.00000170,-0.00000112,-0.000
 00085,0.00000079,-0.00000142\\\@
 The archive entry for this job was punched.


 Change starts when someone sees the next step.
                            -- William Drayton
 Job cpu time:       0 days  2 hours 58 minutes  5.0 seconds.
 Elapsed time:       0 days  0 hours 22 minutes 18.4 seconds.
 File lengths (MBytes):  RWF=    481 Int=      0 D2E=      0 Chk=     19 Scr=      1
 Normal termination of Gaussian 16 at Fri Oct 28 14:16:12 2022.
