 Entering Gaussian System, Link 0=g16
 Input=Conformes_2_MM_water.gjf
 Output=Conformes_2_MM_water.log
 Initial command:
 /home/Programs/g16_gost/l1.exe "/storage/users/gostb/Gau-4211.inp" -scrdir="/storage/users/gostb/"
 Entering Link 1 = /home/Programs/g16_gost/l1.exe PID=      4212.
  
 Copyright (c) 1988-2019, Gaussian, Inc.  All Rights Reserved.
  
 This is part of the Gaussian(R) 16 program.  It is based on
 the Gaussian(R) 09 system (copyright 2009, Gaussian, Inc.),
 the Gaussian(R) 03 system (copyright 2003, Gaussian, Inc.),
 the Gaussian(R) 98 system (copyright 1998, Gaussian, Inc.),
 the Gaussian(R) 94 system (copyright 1995, Gaussian, Inc.),
 the Gaussian 92(TM) system (copyright 1992, Gaussian, Inc.),
 the Gaussian 90(TM) system (copyright 1990, Gaussian, Inc.),
 the Gaussian 88(TM) system (copyright 1988, Gaussian, Inc.),
 the Gaussian 86(TM) system (copyright 1986, Carnegie Mellon
 University), and the Gaussian 82(TM) system (copyright 1983,
 Carnegie Mellon University). Gaussian is a federally registered
 trademark of Gaussian, Inc.
  
 This software contains proprietary and confidential information,
 including trade secrets, belonging to Gaussian, Inc.
  
 This software is provided under written license and may be
 used, copied, transmitted, or stored only in accord with that
 written license.
  
 The following legend is applicable only to US Government
 contracts under FAR:
  
                    RESTRICTED RIGHTS LEGEND
  
 Use, reproduction and disclosure by the US Government is
 subject to restrictions as set forth in subparagraphs (a)
 and (c) of the Commercial Computer Software - Restricted
 Rights clause in FAR 52.227-19.
  
 Gaussian, Inc.
 340 Quinnipiac St., Bldg. 40, Wallingford CT 06492
  
  
 ---------------------------------------------------------------
 Warning -- This program may not be used in any manner that
 competes with the business of Gaussian, Inc. or will provide
 assistance to any competitor of Gaussian, Inc.  The licensee
 of this program is prohibited from giving any competitor of
 Gaussian, Inc. access to this program.  By using this program,
 the user acknowledges that Gaussian, Inc. is engaged in the
 business of creating and licensing software in the field of
 computational chemistry and represents and warrants to the
 licensee that it is not a competitor of Gaussian, Inc. and that
 it will not use this program in any manner prohibited above.
 ---------------------------------------------------------------
  

 Cite this work as:
 Gaussian 16, Revision C.01,
 M. J. Frisch, G. W. Trucks, H. B. Schlegel, G. E. Scuseria, 
 M. A. Robb, J. R. Cheeseman, G. Scalmani, V. Barone, 
 G. A. Petersson, H. Nakatsuji, X. Li, M. Caricato, A. V. Marenich, 
 J. Bloino, B. G. Janesko, R. Gomperts, B. Mennucci, H. P. Hratchian, 
 J. V. Ortiz, A. F. Izmaylov, J. L. Sonnenberg, D. Williams-Young, 
 F. Ding, F. Lipparini, F. Egidi, J. Goings, B. Peng, A. Petrone, 
 T. Henderson, D. Ranasinghe, V. G. Zakrzewski, J. Gao, N. Rega, 
 G. Zheng, W. Liang, M. Hada, M. Ehara, K. Toyota, R. Fukuda, 
 J. Hasegawa, M. Ishida, T. Nakajima, Y. Honda, O. Kitao, H. Nakai, 
 T. Vreven, K. Throssell, J. A. Montgomery, Jr., J. E. Peralta, 
 F. Ogliaro, M. J. Bearpark, J. J. Heyd, E. N. Brothers, K. N. Kudin, 
 V. N. Staroverov, T. A. Keith, R. Kobayashi, J. Normand, 
 K. Raghavachari, A. P. Rendell, J. C. Burant, S. S. Iyengar, 
 J. Tomasi, M. Cossi, J. M. Millam, M. Klene, C. Adamo, R. Cammi, 
 J. W. Ochterski, R. L. Martin, K. Morokuma, O. Farkas, 
 J. B. Foresman, and D. J. Fox, Gaussian, Inc., Wallingford CT, 2019.
 
 ******************************************
 Gaussian 16:  EM64L-G16RevC.01  3-Jul-2019
                28-Oct-2022 
 ******************************************
 %chk=Conformes_2_MM_water.chk
 %mem=32gb
 %nprocshared=8
 Will use up to    8 processors via shared memory.
 -------------------------------------------------
 # b3lyp 6-31g(d) opt freq scrf(pcm,solvent=water)
 -------------------------------------------------
 1/18=20,19=15,26=3,38=1/1,3;
 2/9=110,12=2,17=6,18=5,40=1/2;
 3/5=1,6=6,7=1,11=2,25=1,30=1,70=2201,71=1,72=1,74=-5/1,2,3;
 4//1;
 5/5=2,38=5,53=1/2;
 6/7=2,8=2,9=2,10=2,28=1/1;
 7//1,2,3,16;
 1/18=20,19=15,26=3/3(2);
 2/9=110/2;
 99//99;
 2/9=110/2;
 3/5=1,6=6,7=1,11=2,25=1,30=1,70=2205,71=1,72=1,74=-5/1,2,3;
 4/5=5,16=3,69=1/1;
 5/5=2,38=5,53=1/2;
 7//1,2,3,16;
 1/18=20,19=15,26=3/3(-5);
 2/9=110/2;
 6/7=2,8=2,9=2,10=2,19=2,28=1/1;
 99/9=1/99;
 ------------------------
 conformer 2 optimization
 ------------------------
 Symbolic Z-matrix:
 Charge =  0 Multiplicity = 1
 C                     0.4946    0.1636    1.7389 
 C                    -0.3431   -0.1853    0.6631 
 C                     0.1161    0.1437    3.0915 
 C                    -1.2122   -0.2       3.3555 
 C                    -1.6553   -0.5417    1.0103 
 C                    -2.092    -0.5433    2.334 
 C                     0.0945   -0.1702   -0.6823 
 C                     1.4456   -0.0071   -1.0305 
 C                    -0.7808   -0.3341   -1.7691 
 C                    -0.3323   -0.3577   -3.0911 
 C                     1.9198    0.1017   -2.3427 
 C                     1.0182   -0.1683   -3.3734 
 N                    -1.6493   -0.2136    4.6257 
 O                     3.2576    0.2142   -2.5783 
 C                     3.6973    1.5445   -2.7002 
 N                     1.4421   -0.1789   -4.6485 
 H                     1.5195    0.4946    1.5373 
 H                    -2.4044   -0.8512    0.2676 
 H                     2.2375    0.0349   -0.2696 
 H                    -1.867    -0.45     -1.6425 
 H                    -1.0521   -0.5087   -3.9139 
 H                    -0.9639    0.0476    5.3313 
 H                    -2.6212   -0.4848    4.7573 
 H                     4.8097    1.5356   -2.6832 
 H                     3.3399    1.947    -3.6732 
 H                     3.3133    2.148    -1.847 
 H                     2.4367   -0.0046   -4.7792 
 H                     0.7234   -0.3642   -5.3455 
 O                     0.9156    0.4897    4.15 
 C                     2.1783    1.0597    3.9111 
 H                    -3.1327   -0.8225    2.5688 
 H                     2.6099    1.3083    4.9064 
 H                     2.8413    0.3174    3.4101 
 H                     2.057     2.0011    3.3292 
 

 GradGradGradGradGradGradGradGradGradGradGradGradGradGradGradGradGradGrad
 Berny optimization.
 Initialization pass.
                           ----------------------------
                           !    Initial Parameters    !
                           ! (Angstroms and Degrees)  !
 --------------------------                            --------------------------
 ! Name  Definition              Value          Derivative Info.                !
 --------------------------------------------------------------------------------
 ! R1    R(1,2)                  1.4074         estimate D2E/DX2                !
 ! R2    R(1,3)                  1.4047         estimate D2E/DX2                !
 ! R3    R(1,17)                 1.0957         estimate D2E/DX2                !
 ! R4    R(2,5)                  1.4034         estimate D2E/DX2                !
 ! R5    R(2,7)                  1.4149         estimate D2E/DX2                !
 ! R6    R(3,4)                  1.3972         estimate D2E/DX2                !
 ! R7    R(3,29)                 1.3709         estimate D2E/DX2                !
 ! R8    R(4,6)                  1.3912         estimate D2E/DX2                !
 ! R9    R(4,13)                 1.3434         estimate D2E/DX2                !
 ! R10   R(5,6)                  1.3939         estimate D2E/DX2                !
 ! R11   R(5,18)                 1.0993         estimate D2E/DX2                !
 ! R12   R(6,31)                 1.1028         estimate D2E/DX2                !
 ! R13   R(7,8)                  1.4047         estimate D2E/DX2                !
 ! R14   R(7,9)                  1.405          estimate D2E/DX2                !
 ! R15   R(8,11)                 1.3995         estimate D2E/DX2                !
 ! R16   R(8,19)                 1.099          estimate D2E/DX2                !
 ! R17   R(9,10)                 1.3962         estimate D2E/DX2                !
 ! R18   R(9,20)                 1.0997         estimate D2E/DX2                !
 ! R19   R(10,12)                1.3926         estimate D2E/DX2                !
 ! R20   R(10,21)                1.1036         estimate D2E/DX2                !
 ! R21   R(11,12)                1.3958         estimate D2E/DX2                !
 ! R22   R(11,14)                1.363          estimate D2E/DX2                !
 ! R23   R(12,16)                1.3438         estimate D2E/DX2                !
 ! R24   R(13,22)                1.0178         estimate D2E/DX2                !
 ! R25   R(13,23)                1.0176         estimate D2E/DX2                !
 ! R26   R(14,15)                1.4064         estimate D2E/DX2                !
 ! R27   R(15,24)                1.1126         estimate D2E/DX2                !
 ! R28   R(15,25)                1.112          estimate D2E/DX2                !
 ! R29   R(15,26)                1.1134         estimate D2E/DX2                !
 ! R30   R(16,27)                1.0182         estimate D2E/DX2                !
 ! R31   R(16,28)                1.0182         estimate D2E/DX2                !
 ! R32   R(29,30)                1.4058         estimate D2E/DX2                !
 ! R33   R(30,32)                1.113          estimate D2E/DX2                !
 ! R34   R(30,33)                1.1143         estimate D2E/DX2                !
 ! R35   R(30,34)                1.1134         estimate D2E/DX2                !
 ! A1    A(2,1,3)              124.8994         estimate D2E/DX2                !
 ! A2    A(2,1,17)             119.405          estimate D2E/DX2                !
 ! A3    A(3,1,17)             115.6884         estimate D2E/DX2                !
 ! A4    A(1,2,5)              115.4919         estimate D2E/DX2                !
 ! A5    A(1,2,7)              122.6918         estimate D2E/DX2                !
 ! A6    A(5,2,7)              121.8142         estimate D2E/DX2                !
 ! A7    A(1,3,4)              116.2051         estimate D2E/DX2                !
 ! A8    A(1,3,29)             125.6455         estimate D2E/DX2                !
 ! A9    A(4,3,29)             118.075          estimate D2E/DX2                !
 ! A10   A(3,4,6)              121.5463         estimate D2E/DX2                !
 ! A11   A(3,4,13)             119.3717         estimate D2E/DX2                !
 ! A12   A(6,4,13)             119.0784         estimate D2E/DX2                !
 ! A13   A(2,5,6)              121.883          estimate D2E/DX2                !
 ! A14   A(2,5,18)             122.7857         estimate D2E/DX2                !
 ! A15   A(6,5,18)             115.3259         estimate D2E/DX2                !
 ! A16   A(4,6,5)              119.9263         estimate D2E/DX2                !
 ! A17   A(4,6,31)             120.1953         estimate D2E/DX2                !
 ! A18   A(5,6,31)             119.8774         estimate D2E/DX2                !
 ! A19   A(2,7,8)              122.3047         estimate D2E/DX2                !
 ! A20   A(2,7,9)              122.7929         estimate D2E/DX2                !
 ! A21   A(8,7,9)              114.8973         estimate D2E/DX2                !
 ! A22   A(7,8,11)             124.5647         estimate D2E/DX2                !
 ! A23   A(7,8,19)             121.726          estimate D2E/DX2                !
 ! A24   A(11,8,19)            113.7058         estimate D2E/DX2                !
 ! A25   A(7,9,10)             122.2927         estimate D2E/DX2                !
 ! A26   A(7,9,20)             122.5871         estimate D2E/DX2                !
 ! A27   A(10,9,20)            115.12           estimate D2E/DX2                !
 ! A28   A(9,10,12)            120.0759         estimate D2E/DX2                !
 ! A29   A(9,10,21)            119.9165         estimate D2E/DX2                !
 ! A30   A(12,10,21)           119.9986         estimate D2E/DX2                !
 ! A31   A(8,11,12)            117.2891         estimate D2E/DX2                !
 ! A32   A(8,11,14)            120.0694         estimate D2E/DX2                !
 ! A33   A(12,11,14)           121.4883         estimate D2E/DX2                !
 ! A34   A(10,12,11)           120.201          estimate D2E/DX2                !
 ! A35   A(10,12,16)           119.8146         estimate D2E/DX2                !
 ! A36   A(11,12,16)           119.8993         estimate D2E/DX2                !
 ! A37   A(4,13,22)            115.7089         estimate D2E/DX2                !
 ! A38   A(4,13,23)            115.8331         estimate D2E/DX2                !
 ! A39   A(22,13,23)           128.4579         estimate D2E/DX2                !
 ! A40   A(11,14,15)           113.5727         estimate D2E/DX2                !
 ! A41   A(14,15,24)           107.6806         estimate D2E/DX2                !
 ! A42   A(14,15,25)           108.5267         estimate D2E/DX2                !
 ! A43   A(14,15,26)           109.7836         estimate D2E/DX2                !
 ! A44   A(24,15,25)           109.7326         estimate D2E/DX2                !
 ! A45   A(24,15,26)           109.7229         estimate D2E/DX2                !
 ! A46   A(25,15,26)           111.3145         estimate D2E/DX2                !
 ! A47   A(12,16,27)           115.3794         estimate D2E/DX2                !
 ! A48   A(12,16,28)           115.3626         estimate D2E/DX2                !
 ! A49   A(27,16,28)           129.2574         estimate D2E/DX2                !
 ! A50   A(3,29,30)            119.6658         estimate D2E/DX2                !
 ! A51   A(29,30,32)           106.6727         estimate D2E/DX2                !
 ! A52   A(29,30,33)           109.9215         estimate D2E/DX2                !
 ! A53   A(29,30,34)           109.499          estimate D2E/DX2                !
 ! A54   A(32,30,33)           108.672          estimate D2E/DX2                !
 ! A55   A(32,30,34)           108.71           estimate D2E/DX2                !
 ! A56   A(33,30,34)           113.1488         estimate D2E/DX2                !
 ! D1    D(3,1,2,5)              1.6275         estimate D2E/DX2                !
 ! D2    D(3,1,2,7)           -178.8906         estimate D2E/DX2                !
 ! D3    D(17,1,2,5)          -177.3554         estimate D2E/DX2                !
 ! D4    D(17,1,2,7)             2.1265         estimate D2E/DX2                !
 ! D5    D(2,1,3,4)             -2.6912         estimate D2E/DX2                !
 ! D6    D(2,1,3,29)          -179.4806         estimate D2E/DX2                !
 ! D7    D(17,1,3,4)           176.3255         estimate D2E/DX2                !
 ! D8    D(17,1,3,29)           -0.4639         estimate D2E/DX2                !
 ! D9    D(1,2,5,6)              0.1843         estimate D2E/DX2                !
 ! D10   D(1,2,5,18)          -178.9332         estimate D2E/DX2                !
 ! D11   D(7,2,5,6)           -179.3025         estimate D2E/DX2                !
 ! D12   D(7,2,5,18)             1.58           estimate D2E/DX2                !
 ! D13   D(1,2,7,8)             10.0376         estimate D2E/DX2                !
 ! D14   D(1,2,7,9)           -170.8314         estimate D2E/DX2                !
 ! D15   D(5,2,7,8)           -170.5128         estimate D2E/DX2                !
 ! D16   D(5,2,7,9)              8.6182         estimate D2E/DX2                !
 ! D17   D(1,3,4,6)              1.9823         estimate D2E/DX2                !
 ! D18   D(1,3,4,13)          -178.7168         estimate D2E/DX2                !
 ! D19   D(29,3,4,6)           179.0255         estimate D2E/DX2                !
 ! D20   D(29,3,4,13)           -1.6736         estimate D2E/DX2                !
 ! D21   D(1,3,29,30)            7.657          estimate D2E/DX2                !
 ! D22   D(4,3,29,30)         -169.0781         estimate D2E/DX2                !
 ! D23   D(3,4,6,5)             -0.3719         estimate D2E/DX2                !
 ! D24   D(3,4,6,31)           179.2722         estimate D2E/DX2                !
 ! D25   D(13,4,6,5)          -179.6748         estimate D2E/DX2                !
 ! D26   D(13,4,6,31)           -0.0307         estimate D2E/DX2                !
 ! D27   D(3,4,13,22)            0.7845         estimate D2E/DX2                !
 ! D28   D(3,4,13,23)         -179.1258         estimate D2E/DX2                !
 ! D29   D(6,4,13,22)         -179.8972         estimate D2E/DX2                !
 ! D30   D(6,4,13,23)            0.1925         estimate D2E/DX2                !
 ! D31   D(2,5,6,4)             -0.7773         estimate D2E/DX2                !
 ! D32   D(2,5,6,31)           179.5775         estimate D2E/DX2                !
 ! D33   D(18,5,6,4)           178.4019         estimate D2E/DX2                !
 ! D34   D(18,5,6,31)           -1.2433         estimate D2E/DX2                !
 ! D35   D(2,7,8,11)          -175.6597         estimate D2E/DX2                !
 ! D36   D(2,7,8,19)             5.0578         estimate D2E/DX2                !
 ! D37   D(9,7,8,11)             5.1457         estimate D2E/DX2                !
 ! D38   D(9,7,8,19)          -174.1368         estimate D2E/DX2                !
 ! D39   D(2,7,9,10)          -178.0263         estimate D2E/DX2                !
 ! D40   D(2,7,9,20)             2.1589         estimate D2E/DX2                !
 ! D41   D(8,7,9,10)             1.1639         estimate D2E/DX2                !
 ! D42   D(8,7,9,20)          -178.6509         estimate D2E/DX2                !
 ! D43   D(7,8,11,12)           -9.9534         estimate D2E/DX2                !
 ! D44   D(7,8,11,14)         -177.8642         estimate D2E/DX2                !
 ! D45   D(19,8,11,12)         169.3801         estimate D2E/DX2                !
 ! D46   D(19,8,11,14)           1.4692         estimate D2E/DX2                !
 ! D47   D(7,9,10,12)           -2.2966         estimate D2E/DX2                !
 ! D48   D(7,9,10,21)          178.7953         estimate D2E/DX2                !
 ! D49   D(20,9,10,12)         177.5311         estimate D2E/DX2                !
 ! D50   D(20,9,10,21)          -1.377          estimate D2E/DX2                !
 ! D51   D(9,10,12,11)          -2.7025         estimate D2E/DX2                !
 ! D52   D(9,10,12,16)        -179.3455         estimate D2E/DX2                !
 ! D53   D(21,10,12,11)        176.2047         estimate D2E/DX2                !
 ! D54   D(21,10,12,16)         -0.4383         estimate D2E/DX2                !
 ! D55   D(8,11,12,10)           8.3888         estimate D2E/DX2                !
 ! D56   D(8,11,12,16)        -174.971          estimate D2E/DX2                !
 ! D57   D(14,11,12,10)        176.1173         estimate D2E/DX2                !
 ! D58   D(14,11,12,16)         -7.2426         estimate D2E/DX2                !
 ! D59   D(8,11,14,15)         -94.3649         estimate D2E/DX2                !
 ! D60   D(12,11,14,15)         98.2422         estimate D2E/DX2                !
 ! D61   D(10,12,16,27)        178.14           estimate D2E/DX2                !
 ! D62   D(10,12,16,28)         -2.12           estimate D2E/DX2                !
 ! D63   D(11,12,16,27)          1.4868         estimate D2E/DX2                !
 ! D64   D(11,12,16,28)       -178.7732         estimate D2E/DX2                !
 ! D65   D(11,14,15,24)        168.7834         estimate D2E/DX2                !
 ! D66   D(11,14,15,25)        -72.4945         estimate D2E/DX2                !
 ! D67   D(11,14,15,26)         49.3719         estimate D2E/DX2                !
 ! D68   D(3,29,30,32)         176.712          estimate D2E/DX2                !
 ! D69   D(3,29,30,33)         -65.6416         estimate D2E/DX2                !
 ! D70   D(3,29,30,34)          59.2422         estimate D2E/DX2                !
 --------------------------------------------------------------------------------
 Trust Radius=3.00D-01 FncErr=1.00D-07 GrdErr=1.00D-06 EigMax=2.50D+02 EigMin=1.00D-04
 Number of steps in this run=    171 maximum allowed number of steps=    204.
 GradGradGradGradGradGradGradGradGradGradGradGradGradGradGradGradGradGrad

                          Input orientation:                          
 ---------------------------------------------------------------------
 Center     Atomic      Atomic             Coordinates (Angstroms)
 Number     Number       Type             X           Y           Z
 ---------------------------------------------------------------------
      1          6           0        0.494600    0.163600    1.738900
      2          6           0       -0.343100   -0.185300    0.663100
      3          6           0        0.116100    0.143700    3.091500
      4          6           0       -1.212200   -0.200000    3.355500
      5          6           0       -1.655300   -0.541700    1.010300
      6          6           0       -2.092000   -0.543300    2.334000
      7          6           0        0.094500   -0.170200   -0.682300
      8          6           0        1.445600   -0.007100   -1.030500
      9          6           0       -0.780800   -0.334100   -1.769100
     10          6           0       -0.332300   -0.357700   -3.091100
     11          6           0        1.919800    0.101700   -2.342700
     12          6           0        1.018200   -0.168300   -3.373400
     13          7           0       -1.649300   -0.213600    4.625700
     14          8           0        3.257600    0.214200   -2.578300
     15          6           0        3.697300    1.544500   -2.700200
     16          7           0        1.442100   -0.178900   -4.648500
     17          1           0        1.519500    0.494600    1.537300
     18          1           0       -2.404400   -0.851200    0.267600
     19          1           0        2.237500    0.034900   -0.269600
     20          1           0       -1.867000   -0.450000   -1.642500
     21          1           0       -1.052100   -0.508700   -3.913900
     22          1           0       -0.963900    0.047600    5.331300
     23          1           0       -2.621200   -0.484800    4.757300
     24          1           0        4.809700    1.535600   -2.683200
     25          1           0        3.339900    1.947000   -3.673200
     26          1           0        3.313300    2.148000   -1.847000
     27          1           0        2.436700   -0.004600   -4.779200
     28          1           0        0.723400   -0.364200   -5.345500
     29          8           0        0.915600    0.489700    4.150000
     30          6           0        2.178300    1.059700    3.911100
     31          1           0       -3.132700   -0.822500    2.568800
     32          1           0        2.609900    1.308300    4.906400
     33          1           0        2.841300    0.317400    3.410100
     34          1           0        2.057000    2.001100    3.329200
 ---------------------------------------------------------------------
                    Distance matrix (angstroms):
                    1          2          3          4          5
     1  C    0.000000
     2  C    1.407415   0.000000
     3  C    1.404701   2.493237   0.000000
     4  C    2.378816   2.829235   1.397214   0.000000
     5  C    2.377052   1.403367   2.817627   2.411029   0.000000
     6  C    2.746698   2.445143   2.433409   1.391174   1.393876
     7  C    2.476633   1.414858   3.786894   4.244076   2.462663
     8  C    2.933107   2.469713   4.333728   5.132067   3.750499
     9  C    3.765689   2.475746   4.965698   5.144474   2.921115
    10  C    4.927922   3.758172   6.219084   6.508283   4.313429
    11  C    4.323712   3.773317   5.725873   6.509219   4.943472
    12  C    5.149750   4.259901   6.534987   7.088990   5.148190
    13  N    3.615550   4.172428   2.366024   1.343372   3.630262
    14  O    5.125909   4.861205   6.482332   7.440474   6.130744
    15  C    5.645333   5.534332   6.952052   7.988615   6.838886
    16  N    6.466370   5.603577   7.859386   8.432661   6.461233
    17  H    1.095730   2.166972   2.123252   3.354177   3.380976
    18  H    3.405693   2.201999   3.913714   3.373504   1.099338
    19  H    2.662393   2.752801   3.976075   5.009686   4.138176
    20  H    4.169835   2.776352   5.166810   5.046907   2.662813
    21  H    5.899018   4.642865   7.132037   7.277713   4.961117
    22  H    3.878919   4.715053   2.488441   2.006675   4.415467
    23  H    4.386271   4.694882   3.265381   2.007843   3.869911
    24  H    6.329095   6.380483   7.570629   8.702958   7.730029
    25  H    6.369229   6.075746   7.707525   8.644874   7.285659
    26  H    4.974092   5.011402   6.215150   7.284179   6.331322
    27  H    6.803357   6.113802   8.207015   8.917735   7.109940
    28  H    7.107717   6.105137   8.474063   8.915207   6.788661
    29  O    2.469207   3.768079   1.370890   2.373699   4.187007
    30  C    2.890725   4.296160   2.400723   3.659375   5.067111
    31  H    3.849472   3.437962   3.429498   2.166731   2.165752
    32  H    3.977171   5.381138   3.296846   4.391891   6.065808
    33  H    2.885059   4.235460   2.749253   4.086753   5.168801
    34  H    2.889040   4.201061   2.696948   3.941218   5.062045
                    6          7          8          9         10
     6  C    0.000000
     7  C    3.744069   0.000000
     8  C    4.911414   1.404748   0.000000
     9  C    4.312591   1.405044   2.368399   0.000000
    10  C    5.706374   2.453494   2.744070   1.396207   0.000000
    11  C    6.195328   2.482454   1.399490   2.795028   2.417252
    12  C    6.510636   2.845214   2.387014   2.416127   1.392629
    13  N    2.357239   5.587270   6.450864   6.454632   7.829703
    14  O    7.302241   3.707800   2.393325   4.155010   3.671160
    15  C    7.950979   4.471273   3.203984   4.944640   4.473125
    16  N    7.834408   4.188895   3.622078   3.640922   2.367691
    17  H    3.841211   2.720149   2.617396   4.112226   5.057437
    18  H    2.112441   2.758727   4.149707   2.655488   3.977186
    19  H    5.085039   2.191994   1.099017   3.390398   3.836518
    20  H    3.983953   2.201762   3.397650   1.099678   2.112407
    21  H    6.333944   3.445651   3.847610   2.168930   1.103591
    22  H    3.256621   6.109913   6.803027   7.113009   8.455768
    23  H    2.481100   6.087959   7.089830   6.782601   8.176344
    24  H    8.782231   5.398747   4.053210   5.965320   5.494646
    25  H    8.473109   4.894961   3.793513   5.080274   4.374418
    26  H    7.344462   4.134157   2.966384   4.788376   4.595293
    27  H    8.449671   4.722067   3.877504   4.418323   3.262165
    28  H    8.181276   4.709415   4.389569   3.879969   2.489350
    29  O    3.662049   4.945786   5.231184   6.212259   7.396544
    30  C    4.826211   5.191743   5.108260   6.554664   7.572512
    31  H    1.102787   4.627090   5.880533   4.958563   6.331883
    32  H    5.670408   6.304504   6.191337   7.665287   8.682863
    33  H    5.122133   4.952818   4.666070   6.353595   7.265886
    34  H    4.967756   4.965691   4.838767   6.284817   7.245201
                   11         12         13         14         15
    11  C    0.000000
    12  C    1.395753   0.000000
    13  N    7.835591   8.432272   0.000000
    14  O    1.363038   2.406949   8.726872   0.000000
    15  C    2.317107   3.250301   9.238282   1.406376   0.000000
    16  N    2.371423   1.343757   9.775927   2.781420   3.442660
    17  H    3.920333   4.980533   4.481189   4.476358   4.878679
    18  H    5.140077   5.043553   4.468752   6.425922   7.195690
    19  H    2.098366   3.340892   6.255632   2.530385   3.212122
    20  H    3.890309   3.376351   6.276433   5.251515   6.004848
    21  H    3.416643   2.166600   8.565541   4.569456   5.314649
    22  H    8.198105   8.930125   1.017777   8.967195   9.405981
    23  H    8.448353   8.913680   1.017574   9.426554   9.982776
    24  H    3.243999   4.213683   9.909511   2.041107   1.112565
    25  H    2.681799   3.155101   9.921293   2.051384   1.111967
    26  H    2.524857   3.600365   8.491195   2.068208   1.113382
    27  H    2.492994   2.003800  10.256277   2.359176   2.882892
    28  H    3.265768   2.003612  10.250718   3.796592   4.414162
    29  O    6.581346   7.552817   2.701783   7.129578   7.468313
    30  C    6.332030   7.477818   4.096641   6.632652   6.800859
    31  H    7.106668   7.277890   2.608078   8.270630   8.945052
    32  H    7.381163   8.559728   4.531640   7.591924   7.687561
    33  H    5.830128   7.040985   4.682428   6.003740   6.290809
    34  H    5.983059   7.121113   4.508045   6.287528   6.265200
                   16         17         18         19         20
    16  N    0.000000
    17  H    6.222838   0.000000
    18  H    6.278184   4.338238   0.000000
    19  H    4.455686   1.997933   4.756153   0.000000
    20  H    4.478803   4.740441   2.024412   4.355101   0.000000
    21  H    2.620961   6.110263   4.408057   4.939422   2.413869
    22  H   10.268230   4.556481   5.340781   6.451295   7.049616
    23  H   10.250515   5.336012   4.509840   7.010476   6.444181
    24  H    4.259418   5.451763   8.151520   3.833246   7.043010
    25  H    3.012027   5.707244   7.507117   4.056588   6.081214
    26  H    4.094418   4.171922   6.794029   2.847934   5.798873
    27  H    1.018181   6.402236   7.044372   4.514170   5.344072
    28  H    1.018172   6.981708   6.444160   5.311924   4.519927
    29  O    8.839561   2.681589   5.281424   4.635421   6.494533
    30  C    8.680027   2.527505   6.158553   4.304878   7.034637
    31  H    8.569273   4.943856   2.413870   6.134386   4.413140
    32  H    9.740207   3.633444   7.164155   5.343333   8.125413
    33  H    8.194212   2.299116   6.225616   3.739595   6.948795
    34  H    8.293021   2.401948   6.116625   4.104861   6.791426
                   21         22         23         24         25
    21  H    0.000000
    22  H    9.262342   0.000000
    23  H    8.812057   1.832913   0.000000
    24  H    6.328861   9.989035  10.708003   0.000000
    25  H    5.037664  10.159303  10.607624   1.819248   0.000000
    26  H    5.512427   8.615922   9.261032   1.820296   1.837421
    27  H    3.629681  10.667193  10.805451   3.520875   2.418212
    28  H    2.285336  10.817145  10.642719   5.234017   3.870957
    29  O    8.360331   2.263502   3.718524   7.934138   8.318859
    30  C    8.609645   3.593708   5.112410   7.115865   7.723874
    31  H    6.815627   3.618311   2.272709   9.809478   9.408892
    32  H    9.721596   3.813391   5.531893   7.905240   8.634256
    33  H    8.335585   4.271223   5.683078   6.518199   7.285419
    34  H    8.272128   4.117087   5.486777   6.628952   7.119155
                   26         27         28         29         30
    26  H    0.000000
    27  H    3.741646   0.000000
    28  H    5.025757   1.839947   0.000000
    29  O    6.668053   9.071311   9.535754   0.000000
    30  C    5.968948   8.759042   9.477809   1.405839   0.000000
    31  H    8.359071   9.256364   8.815650   4.539911   5.792337
    32  H    6.841658   9.775712  10.557348   2.028028   1.112970
    33  H    5.586679   8.205609   9.033859   2.070135   1.114262
    34  H    5.328500   8.361409   9.089750   2.064179   1.113353
                   31         32         33         34
    31  H    0.000000
    32  H    6.556076   0.000000
    33  H    6.139693   1.809514   0.000000
    34  H    5.956837   1.809207   1.859171   0.000000
 Stoichiometry    C14H16N2O2
 Framework group  C1[X(C14H16N2O2)]
 Deg. of freedom    96
 Full point group                 C1      NOp   1
 Largest Abelian subgroup         C1      NOp   1
 Largest concise Abelian subgroup C1      NOp   1
                         Standard orientation:                         
 ---------------------------------------------------------------------
 Center     Atomic      Atomic             Coordinates (Angstroms)
 Number     Number       Type             X           Y           Z
 ---------------------------------------------------------------------
      1          6           0        1.516883    0.438713   -0.051003
      2          6           0        0.764958   -0.750516   -0.016921
      3          6           0        2.920062    0.502197   -0.066600
      4          6           0        3.593865   -0.719242    0.012668
      5          6           0        1.512931   -1.936672    0.037921
      6          6           0        2.906591   -1.927838    0.060797
      7          6           0       -0.649839   -0.760611   -0.025456
      8          6           0       -1.407345    0.395778   -0.274983
      9          6           0       -1.403875   -1.925292    0.196117
     10          6           0       -2.799152   -1.931442    0.145541
     11          6           0       -2.803861    0.459542   -0.209815
     12          6           0       -3.494402   -0.746957   -0.084759
     13          7           0        4.937087   -0.730902    0.029037
     14          8           0       -3.449353    1.621226   -0.512640
     15          6           0       -3.727948    2.419331    0.611330
     16          7           0       -4.837681   -0.756611   -0.119282
     17          1           0        0.997745    1.403658   -0.050294
     18          1           0        1.048690   -2.933085    0.051564
     19          1           0       -0.934243    1.347052   -0.556214
     20          1           0       -0.940733   -2.896186    0.424493
     21          1           0       -3.351595   -2.873191    0.306252
     22          1           0        5.386998    0.181342   -0.006455
     23          1           0        5.372024   -1.649750    0.073828
     24          1           0       -4.060649    3.415520    0.244290
     25          1           0       -4.547048    1.939975    1.190780
     26          1           0       -2.808813    2.534271    1.229067
     27          1           0       -5.277070    0.150597   -0.262817
     28          1           0       -5.270402   -1.670798   -0.002277
     29          8           0        3.667603    1.651105   -0.089639
     30          6           0        3.033970    2.896692    0.063361
     31          1           0        3.461234   -2.879668    0.111103
     32          1           0        3.838764    3.665413    0.072126
     33          1           0        2.364254    3.091262   -0.805662
     34          1           0        2.501981    2.925424    1.040969
 ---------------------------------------------------------------------
 Rotational constants (GHZ):           0.8408360           0.2114019           0.1708524
 Standard basis: 6-31G(d) (6D, 7F)
 There are   302 symmetry adapted cartesian basis functions of A   symmetry.
 There are   302 symmetry adapted basis functions of A   symmetry.
   302 basis functions,   568 primitive gaussians,   302 cartesian basis functions
    65 alpha electrons       65 beta electrons
       nuclear repulsion energy      1254.4311115680 Hartrees.
 NAtoms=   34 NActive=   34 NUniq=   34 SFac= 1.00D+00 NAtFMM=   60 NAOKFM=F Big=F
 Integral buffers will be    131072 words long.
 Raffenetti 2 integral format.
 Two-electron integral symmetry is turned on.
 ------------------------------------------------------------------------------
 Polarizable Continuum Model (PCM)
 =================================
 Model                : PCM.
 Atomic radii         : UFF (Universal Force Field).
 Polarization charges : Total charges.
 Charge compensation  : None.
 Solution method      : On-the-fly selection.
 Cavity type          : Scaled VdW (van der Waals Surface) (Alpha=1.100).
 Cavity algorithm     : GePol (No added spheres)
                        Default sphere list used, NSphG=   34.
                        Lebedev-Laikov grids with approx.  5.0 points / Ang**2.
                        Smoothing algorithm: York/Karplus (Gamma=1.0000).
                        Polarization charges: spherical gaussians, with
                                              point-specific exponents (IZeta= 3).
                        Self-potential: point-specific (ISelfS= 7).
                        Self-field    : sphere-specific E.n sum rule (ISelfD= 2).
 1st derivatives      : Analytical E(r).r(x)/FMM algorithm (CHGder, D1EAlg=3).
                        Cavity 1st derivative terms included.
 Solvent              : Water, Eps=  78.355300 Eps(inf)=   1.777849
 ------------------------------------------------------------------------------
 One-electron integrals computed using PRISM.
 NBasis=   302 RedAO= T EigKep=  3.11D-04  NBF=   302
 NBsUse=   302 1.00D-06 EigRej= -1.00D+00 NBFU=   302
 ExpMin= 1.61D-01 ExpMax= 5.48D+03 ExpMxC= 8.25D+02 IAcc=3 IRadAn=         5 AccDes= 0.00D+00
 Harris functional with IExCor=  402 and IRadAn=       5 diagonalized for initial guess.
 HarFok:  IExCor=  402 AccDes= 0.00D+00 IRadAn=         5 IDoV= 1 UseB2=F ITyADJ=14
 ICtDFT=  3500011 ScaDFX=  1.000000  1.000000  1.000000  1.000000
 FoFCou: FMM=F IPFlag=           0 FMFlag=      100000 FMFlg1=           0
         NFxFlg=           0 DoJE=T BraDBF=F KetDBF=T FulRan=T
         wScrn=  0.000000 ICntrl=       500 IOpCl=  0 I1Cent=   200000004 NGrid=           0
         NMat0=    1 NMatS0=      1 NMatT0=    0 NMatD0=    1 NMtDS0=    0 NMtDT0=    0
 Petite list used in FoFCou.
 Requested convergence on RMS density matrix=1.00D-08 within 128 cycles.
 Requested convergence on MAX density matrix=1.00D-06.
 Requested convergence on             energy=1.00D-06.
 No special actions if energy rises.
 Inv3:  Mode=1 IEnd=    18870192.
 Iteration    1 A*A^-1 deviation from unit magnitude is 7.77D-15 for    511.
 Iteration    1 A*A^-1 deviation from orthogonality  is 5.55D-15 for   2119    958.
 Iteration    1 A^-1*A deviation from unit magnitude is 7.55D-15 for    511.
 Iteration    1 A^-1*A deviation from orthogonality  is 5.11D-15 for   2083   1004.
 Error on total polarization charges =  0.00973
 SCF Done:  E(RB3LYP) =  -803.035594512     A.U. after   13 cycles
            NFock= 13  Conv=0.28D-08     -V/T= 2.0091

 **********************************************************************

            Population analysis using the SCF Density.

 **********************************************************************

 Orbital symmetries:
       Occupied  (A) (A) (A) (A) (A) (A) (A) (A) (A) (A) (A) (A)
                 (A) (A) (A) (A) (A) (A) (A) (A) (A) (A) (A) (A)
                 (A) (A) (A) (A) (A) (A) (A) (A) (A) (A) (A) (A)
                 (A) (A) (A) (A) (A) (A) (A) (A) (A) (A) (A) (A)
                 (A) (A) (A) (A) (A) (A) (A) (A) (A) (A) (A) (A)
                 (A) (A) (A) (A) (A)
       Virtual   (A) (A) (A) (A) (A) (A) (A) (A) (A) (A) (A) (A)
                 (A) (A) (A) (A) (A) (A) (A) (A) (A) (A) (A) (A)
                 (A) (A) (A) (A) (A) (A) (A) (A) (A) (A) (A) (A)
                 (A) (A) (A) (A) (A) (A) (A) (A) (A) (A) (A) (A)
                 (A) (A) (A) (A) (A) (A) (A) (A) (A) (A) (A) (A)
                 (A) (A) (A) (A) (A) (A) (A) (A) (A) (A) (A) (A)
                 (A) (A) (A) (A) (A) (A) (A) (A) (A) (A) (A) (A)
                 (A) (A) (A) (A) (A) (A) (A) (A) (A) (A) (A) (A)
                 (A) (A) (A) (A) (A) (A) (A) (A) (A) (A) (A) (A)
                 (A) (A) (A) (A) (A) (A) (A) (A) (A) (A) (A) (A)
                 (A) (A) (A) (A) (A) (A) (A) (A) (A) (A) (A) (A)
                 (A) (A) (A) (A) (A) (A) (A) (A) (A) (A) (A) (A)
                 (A) (A) (A) (A) (A) (A) (A) (A) (A) (A) (A) (A)
                 (A) (A) (A) (A) (A) (A) (A) (A) (A) (A) (A) (A)
                 (A) (A) (A) (A) (A) (A) (A) (A) (A) (A) (A) (A)
                 (A) (A) (A) (A) (A) (A) (A) (A) (A) (A) (A) (A)
                 (A) (A) (A) (A) (A) (A) (A) (A) (A) (A) (A) (A)
                 (A) (A) (A) (A) (A) (A) (A) (A) (A) (A) (A) (A)
                 (A) (A) (A) (A) (A) (A) (A) (A) (A) (A) (A) (A)
                 (A) (A) (A) (A) (A) (A) (A) (A) (A)
 The electronic state is 1-A.
 Alpha  occ. eigenvalues --  -19.17957 -19.16654 -14.33700 -14.33366 -10.24090
 Alpha  occ. eigenvalues --  -10.23650 -10.23539 -10.22606 -10.21810 -10.21728
 Alpha  occ. eigenvalues --  -10.18171 -10.18046 -10.18035 -10.17980 -10.17931
 Alpha  occ. eigenvalues --  -10.17786 -10.17692 -10.17558  -1.06632  -1.06332
 Alpha  occ. eigenvalues --   -0.92392  -0.92295  -0.85155  -0.81937  -0.75871
 Alpha  occ. eigenvalues --   -0.74485  -0.74290  -0.70402  -0.68847  -0.67289
 Alpha  occ. eigenvalues --   -0.62213  -0.60966  -0.60064  -0.56774  -0.53952
 Alpha  occ. eigenvalues --   -0.53153  -0.51868  -0.50765  -0.50356  -0.48223
 Alpha  occ. eigenvalues --   -0.46952  -0.46301  -0.46189  -0.45682  -0.45418
 Alpha  occ. eigenvalues --   -0.42879  -0.42553  -0.41127  -0.40286  -0.39325
 Alpha  occ. eigenvalues --   -0.38162  -0.37825  -0.37022  -0.36098  -0.34641
 Alpha  occ. eigenvalues --   -0.33796  -0.32897  -0.32655  -0.31680  -0.28724
 Alpha  occ. eigenvalues --   -0.27393  -0.23862  -0.22794  -0.20761  -0.16097
 Alpha virt. eigenvalues --   -0.00738  -0.00067   0.01928   0.07138   0.07946
 Alpha virt. eigenvalues --    0.08763   0.09443   0.10521   0.10964   0.12657
 Alpha virt. eigenvalues --    0.13514   0.14550   0.15036   0.15326   0.16141
 Alpha virt. eigenvalues --    0.16699   0.16823   0.17470   0.17919   0.18511
 Alpha virt. eigenvalues --    0.19582   0.21591   0.21916   0.23700   0.24941
 Alpha virt. eigenvalues --    0.26022   0.29071   0.29577   0.32210   0.33101
 Alpha virt. eigenvalues --    0.34073   0.34525   0.37226   0.37725   0.42560
 Alpha virt. eigenvalues --    0.42952   0.45666   0.49043   0.49977   0.51361
 Alpha virt. eigenvalues --    0.51593   0.52589   0.53386   0.53695   0.54454
 Alpha virt. eigenvalues --    0.55115   0.55582   0.56337   0.56640   0.57676
 Alpha virt. eigenvalues --    0.58201   0.59027   0.59175   0.59956   0.60322
 Alpha virt. eigenvalues --    0.61289   0.61824   0.62897   0.63632   0.64061
 Alpha virt. eigenvalues --    0.64543   0.65116   0.66415   0.67328   0.68816
 Alpha virt. eigenvalues --    0.69156   0.69578   0.71786   0.72352   0.74382
 Alpha virt. eigenvalues --    0.75806   0.76154   0.77885   0.80259   0.80527
 Alpha virt. eigenvalues --    0.82035   0.83239   0.83629   0.84283   0.85533
 Alpha virt. eigenvalues --    0.86001   0.86255   0.87104   0.87750   0.88160
 Alpha virt. eigenvalues --    0.89141   0.90026   0.90915   0.91464   0.92675
 Alpha virt. eigenvalues --    0.93123   0.94064   0.95832   0.96690   0.98396
 Alpha virt. eigenvalues --    0.99156   1.00625   1.02153   1.02551   1.04179
 Alpha virt. eigenvalues --    1.07116   1.08519   1.09396   1.09987   1.11072
 Alpha virt. eigenvalues --    1.12721   1.13901   1.15808   1.17189   1.20665
 Alpha virt. eigenvalues --    1.22258   1.23245   1.24976   1.26486   1.30285
 Alpha virt. eigenvalues --    1.30661   1.32835   1.33557   1.34582   1.36499
 Alpha virt. eigenvalues --    1.39070   1.40273   1.40829   1.43010   1.45346
 Alpha virt. eigenvalues --    1.45818   1.47938   1.48303   1.50694   1.51063
 Alpha virt. eigenvalues --    1.52530   1.54124   1.54595   1.58104   1.60196
 Alpha virt. eigenvalues --    1.62025   1.65899   1.66269   1.66794   1.69473
 Alpha virt. eigenvalues --    1.72415   1.74818   1.77329   1.79523   1.80599
 Alpha virt. eigenvalues --    1.81573   1.82370   1.82829   1.84729   1.85915
 Alpha virt. eigenvalues --    1.87657   1.89013   1.90900   1.92026   1.92420
 Alpha virt. eigenvalues --    1.95026   1.96978   1.99311   2.00120   2.01378
 Alpha virt. eigenvalues --    2.02426   2.05011   2.06609   2.07234   2.08603
 Alpha virt. eigenvalues --    2.10334   2.11071   2.12332   2.13647   2.14852
 Alpha virt. eigenvalues --    2.15369   2.16454   2.17913   2.21512   2.22356
 Alpha virt. eigenvalues --    2.25010   2.26221   2.27957   2.29516   2.30238
 Alpha virt. eigenvalues --    2.31549   2.33544   2.36084   2.36144   2.36922
 Alpha virt. eigenvalues --    2.37450   2.40380   2.41976   2.42464   2.43945
 Alpha virt. eigenvalues --    2.50729   2.51276   2.53961   2.57445   2.58686
 Alpha virt. eigenvalues --    2.59373   2.60228   2.61726   2.64221   2.64923
 Alpha virt. eigenvalues --    2.70031   2.71603   2.73088   2.75489   2.80893
 Alpha virt. eigenvalues --    2.83334   2.84196   2.87097   2.89467   2.92966
 Alpha virt. eigenvalues --    2.93691   3.03199   3.04620   3.07654   3.11061
 Alpha virt. eigenvalues --    3.21207   3.37206   3.38447   3.50943   3.85372
 Alpha virt. eigenvalues --    3.87020   4.09399   4.09845   4.10809   4.11472
 Alpha virt. eigenvalues --    4.13633   4.18206   4.21265   4.23273   4.27630
 Alpha virt. eigenvalues --    4.32794   4.35209   4.40728   4.47041   4.60153
 Alpha virt. eigenvalues --    4.78928   4.90747
          Condensed to atoms (all electrons):
               1          2          3          4          5          6
     1  C    5.421916   0.428215   0.411613  -0.043911  -0.083336  -0.061275
     2  C    0.428215   4.807933   0.003473  -0.028885   0.500308  -0.018741
     3  C    0.411613   0.003473   4.717215   0.505575  -0.047839  -0.030376
     4  C   -0.043911  -0.028885   0.505575   4.565201  -0.013622   0.544921
     5  C   -0.083336   0.500308  -0.047839  -0.013622   5.136581   0.481089
     6  C   -0.061275  -0.018741  -0.030376   0.544921   0.481089   5.087168
     7  C   -0.036341   0.350649   0.005717   0.000683  -0.053748   0.007916
     8  C   -0.030312  -0.030005   0.000652  -0.000018   0.012657  -0.000215
     9  C    0.012540  -0.054488  -0.000115  -0.000007  -0.027797   0.000666
    10  C   -0.000187   0.007341   0.000001   0.000000   0.000626  -0.000015
    11  C    0.000602   0.005097  -0.000010  -0.000000  -0.000141   0.000002
    12  C   -0.000022   0.000718   0.000000   0.000000  -0.000004   0.000000
    13  N    0.010541  -0.000052  -0.075378   0.276534   0.007467  -0.091979
    14  O    0.000011  -0.000113  -0.000000  -0.000000   0.000000   0.000000
    15  C   -0.000005   0.000011  -0.000000   0.000000   0.000000  -0.000000
    16  N   -0.000000  -0.000002   0.000000   0.000000  -0.000000   0.000000
    17  H    0.331946  -0.028370  -0.047891   0.004436   0.006862   0.000628
    18  H    0.006594  -0.028901   0.000779   0.003616   0.343072  -0.043712
    19  H    0.006127  -0.016722   0.000579  -0.000005  -0.000269   0.000002
    20  H   -0.000316  -0.015267   0.000005  -0.000010   0.006189   0.000338
    21  H    0.000002  -0.000215  -0.000000  -0.000000   0.000008   0.000000
    22  H    0.000627  -0.000050  -0.016176  -0.023698  -0.000163   0.006015
    23  H   -0.000200   0.000000   0.005866  -0.021110  -0.000042  -0.007939
    24  H    0.000000  -0.000000   0.000000  -0.000000   0.000000   0.000000
    25  H    0.000000  -0.000002   0.000000  -0.000000  -0.000000   0.000000
    26  H   -0.000021   0.000040  -0.000000   0.000000   0.000000  -0.000000
    27  H   -0.000000   0.000001  -0.000000   0.000000  -0.000000   0.000000
    28  H    0.000000  -0.000000   0.000000   0.000000  -0.000000  -0.000000
    29  O   -0.060283   0.003772   0.266131  -0.059222  -0.000010   0.003830
    30  C   -0.006936   0.000225  -0.042948   0.004264   0.000017  -0.000110
    31  H    0.000358   0.002536   0.004998  -0.038596  -0.031324   0.350103
    32  H    0.000199   0.000009   0.002235   0.000020  -0.000000   0.000006
    33  H    0.004624  -0.000039  -0.004481  -0.000284  -0.000008   0.000000
    34  H    0.004754  -0.000405  -0.001150   0.000143   0.000010  -0.000041
               7          8          9         10         11         12
     1  C   -0.036341  -0.030312   0.012540  -0.000187   0.000602  -0.000022
     2  C    0.350649  -0.030005  -0.054488   0.007341   0.005097   0.000718
     3  C    0.005717   0.000652  -0.000115   0.000001  -0.000010   0.000000
     4  C    0.000683  -0.000018  -0.000007   0.000000  -0.000000   0.000000
     5  C   -0.053748   0.012657  -0.027797   0.000626  -0.000141  -0.000004
     6  C    0.007916  -0.000215   0.000666  -0.000015   0.000002   0.000000
     7  C    4.848870   0.422619   0.502926  -0.019297  -0.012682  -0.028849
     8  C    0.422619   5.323863  -0.091171  -0.053951   0.477975  -0.048992
     9  C    0.502926  -0.091171   5.113514   0.491110  -0.041304  -0.015473
    10  C   -0.019297  -0.053951   0.491110   5.115045  -0.031527   0.499644
    11  C   -0.012682   0.477975  -0.041304  -0.031527   4.771488   0.497489
    12  C   -0.028849  -0.048992  -0.015473   0.499644   0.497489   4.598115
    13  N   -0.000008   0.000000   0.000000   0.000000   0.000000   0.000000
    14  O    0.004046  -0.055628   0.000185   0.004973   0.205576  -0.062174
    15  C   -0.000339  -0.007664   0.000048  -0.000119  -0.038912  -0.002064
    16  N    0.000229   0.008784   0.006771  -0.086578  -0.073212   0.280574
    17  H   -0.018245   0.009250  -0.000299   0.000003   0.000397  -0.000008
    18  H   -0.016085  -0.000314   0.006335   0.000377   0.000004  -0.000011
    19  H   -0.028259   0.326254   0.006577   0.000404  -0.042711   0.006588
    20  H   -0.029419   0.006009   0.343509  -0.042673   0.000866   0.003521
    21  H    0.002099   0.000614  -0.030480   0.346656   0.004176  -0.034950
    22  H    0.000000  -0.000000  -0.000000   0.000000  -0.000000   0.000000
    23  H   -0.000000   0.000000  -0.000000  -0.000000   0.000000   0.000000
    24  H    0.000005   0.000128  -0.000001   0.000009   0.003766  -0.000163
    25  H    0.000074   0.000090   0.000003  -0.000410  -0.002339   0.003243
    26  H   -0.000641   0.005485  -0.000057   0.000063   0.002872   0.000171
    27  H   -0.000014   0.000256  -0.000202   0.007387  -0.016324  -0.023820
    28  H   -0.000005  -0.000196  -0.000034  -0.007875   0.005783  -0.021096
    29  O   -0.000040   0.000003   0.000000  -0.000000  -0.000000  -0.000000
    30  C   -0.000013  -0.000022   0.000000  -0.000000  -0.000000   0.000000
    31  H   -0.000210   0.000002   0.000007  -0.000000  -0.000000  -0.000000
    32  H   -0.000000   0.000000  -0.000000   0.000000   0.000000  -0.000000
    33  H    0.000008  -0.000033   0.000000  -0.000000   0.000000   0.000000
    34  H   -0.000009   0.000019  -0.000000   0.000000  -0.000001  -0.000000
              13         14         15         16         17         18
     1  C    0.010541   0.000011  -0.000005  -0.000000   0.331946   0.006594
     2  C   -0.000052  -0.000113   0.000011  -0.000002  -0.028370  -0.028901
     3  C   -0.075378  -0.000000  -0.000000   0.000000  -0.047891   0.000779
     4  C    0.276534  -0.000000   0.000000   0.000000   0.004436   0.003616
     5  C    0.007467   0.000000   0.000000  -0.000000   0.006862   0.343072
     6  C   -0.091979   0.000000  -0.000000   0.000000   0.000628  -0.043712
     7  C   -0.000008   0.004046  -0.000339   0.000229  -0.018245  -0.016085
     8  C    0.000000  -0.055628  -0.007664   0.008784   0.009250  -0.000314
     9  C    0.000000   0.000185   0.000048   0.006771  -0.000299   0.006335
    10  C    0.000000   0.004973  -0.000119  -0.086578   0.000003   0.000377
    11  C    0.000000   0.205576  -0.038912  -0.073212   0.000397   0.000004
    12  C    0.000000  -0.062174  -0.002064   0.280574  -0.000008  -0.000011
    13  N    7.105390  -0.000000   0.000000  -0.000000  -0.000148  -0.000150
    14  O   -0.000000   8.304409   0.244437  -0.011087  -0.000027   0.000000
    15  C    0.000000   0.244437   4.911851  -0.001031  -0.000007   0.000000
    16  N   -0.000000  -0.011087  -0.001031   7.101612  -0.000000  -0.000000
    17  H   -0.000148  -0.000027  -0.000007  -0.000000   0.593756  -0.000157
    18  H   -0.000150   0.000000   0.000000  -0.000000  -0.000157   0.597033
    19  H   -0.000000   0.001634   0.000888  -0.000170   0.004613   0.000000
    20  H   -0.000000   0.000002   0.000000  -0.000155  -0.000001   0.004418
    21  H   -0.000000  -0.000054   0.000000  -0.008977   0.000000   0.000004
    22  H    0.310887   0.000000  -0.000000   0.000000  -0.000003   0.000004
    23  H    0.315231   0.000000  -0.000000   0.000000   0.000005  -0.000018
    24  H   -0.000000  -0.031000   0.376342  -0.000045   0.000001   0.000000
    25  H   -0.000000  -0.047166   0.368352   0.003111  -0.000000  -0.000000
    26  H   -0.000000  -0.040468   0.362802   0.000025   0.000044   0.000000
    27  H    0.000000   0.022192  -0.000164   0.306953   0.000000   0.000000
    28  H    0.000000   0.000043   0.000003   0.315573   0.000000   0.000000
    29  O   -0.009992   0.000000   0.000000  -0.000000  -0.008275   0.000002
    30  C    0.000086   0.000000  -0.000000   0.000000   0.007758  -0.000000
    31  H   -0.009771   0.000000  -0.000000  -0.000000   0.000013  -0.005069
    32  H   -0.000010   0.000000   0.000000  -0.000000  -0.000135  -0.000000
    33  H   -0.000007   0.000000  -0.000000  -0.000000   0.000627  -0.000000
    34  H   -0.000007   0.000000  -0.000000   0.000000   0.002585   0.000000
              19         20         21         22         23         24
     1  C    0.006127  -0.000316   0.000002   0.000627  -0.000200   0.000000
     2  C   -0.016722  -0.015267  -0.000215  -0.000050   0.000000  -0.000000
     3  C    0.000579   0.000005  -0.000000  -0.016176   0.005866   0.000000
     4  C   -0.000005  -0.000010  -0.000000  -0.023698  -0.021110  -0.000000
     5  C   -0.000269   0.006189   0.000008  -0.000163  -0.000042   0.000000
     6  C    0.000002   0.000338   0.000000   0.006015  -0.007939   0.000000
     7  C   -0.028259  -0.029419   0.002099   0.000000  -0.000000   0.000005
     8  C    0.326254   0.006009   0.000614  -0.000000   0.000000   0.000128
     9  C    0.006577   0.343509  -0.030480  -0.000000  -0.000000  -0.000001
    10  C    0.000404  -0.042673   0.346656   0.000000  -0.000000   0.000009
    11  C   -0.042711   0.000866   0.004176  -0.000000   0.000000   0.003766
    12  C    0.006588   0.003521  -0.034950   0.000000   0.000000  -0.000163
    13  N   -0.000000  -0.000000  -0.000000   0.310887   0.315231  -0.000000
    14  O    0.001634   0.000002  -0.000054   0.000000   0.000000  -0.031000
    15  C    0.000888   0.000000   0.000000  -0.000000  -0.000000   0.376342
    16  N   -0.000170  -0.000155  -0.008977   0.000000   0.000000  -0.000045
    17  H    0.004613  -0.000001   0.000000  -0.000003   0.000005   0.000001
    18  H    0.000000   0.004418   0.000004   0.000004  -0.000018   0.000000
    19  H    0.600981  -0.000150   0.000017   0.000000  -0.000000  -0.000189
    20  H   -0.000150   0.592089  -0.004900   0.000000   0.000000   0.000000
    21  H    0.000017  -0.004900   0.577935  -0.000000   0.000000  -0.000000
    22  H    0.000000   0.000000  -0.000000   0.364363  -0.019105  -0.000000
    23  H   -0.000000   0.000000   0.000000  -0.019105   0.365958   0.000000
    24  H   -0.000189   0.000000  -0.000000  -0.000000   0.000000   0.547130
    25  H    0.000179   0.000000   0.000006   0.000000   0.000000  -0.033726
    26  H    0.000290  -0.000000  -0.000000  -0.000000  -0.000000  -0.028239
    27  H   -0.000025   0.000004  -0.000111  -0.000000   0.000000   0.000060
    28  H    0.000005  -0.000017   0.007650   0.000000  -0.000000  -0.000001
    29  O    0.000004   0.000000   0.000000   0.022055   0.000108  -0.000000
    30  C   -0.000032   0.000000  -0.000000  -0.000922   0.000004  -0.000000
    31  H    0.000000   0.000006   0.000000  -0.000078   0.007782   0.000000
    32  H   -0.000000   0.000000   0.000000  -0.000103  -0.000001  -0.000000
    33  H    0.000158   0.000000  -0.000000   0.000079   0.000000  -0.000000
    34  H   -0.000064  -0.000000  -0.000000   0.000068   0.000000  -0.000000
              25         26         27         28         29         30
     1  C    0.000000  -0.000021  -0.000000   0.000000  -0.060283  -0.006936
     2  C   -0.000002   0.000040   0.000001  -0.000000   0.003772   0.000225
     3  C    0.000000  -0.000000  -0.000000   0.000000   0.266131  -0.042948
     4  C   -0.000000   0.000000   0.000000   0.000000  -0.059222   0.004264
     5  C   -0.000000   0.000000  -0.000000  -0.000000  -0.000010   0.000017
     6  C    0.000000  -0.000000   0.000000  -0.000000   0.003830  -0.000110
     7  C    0.000074  -0.000641  -0.000014  -0.000005  -0.000040  -0.000013
     8  C    0.000090   0.005485   0.000256  -0.000196   0.000003  -0.000022
     9  C    0.000003  -0.000057  -0.000202  -0.000034   0.000000   0.000000
    10  C   -0.000410   0.000063   0.007387  -0.007875  -0.000000  -0.000000
    11  C   -0.002339   0.002872  -0.016324   0.005783  -0.000000  -0.000000
    12  C    0.003243   0.000171  -0.023820  -0.021096  -0.000000   0.000000
    13  N   -0.000000  -0.000000   0.000000   0.000000  -0.009992   0.000086
    14  O   -0.047166  -0.040468   0.022192   0.000043   0.000000   0.000000
    15  C    0.368352   0.362802  -0.000164   0.000003   0.000000  -0.000000
    16  N    0.003111   0.000025   0.306953   0.315573  -0.000000   0.000000
    17  H   -0.000000   0.000044   0.000000   0.000000  -0.008275   0.007758
    18  H   -0.000000   0.000000   0.000000   0.000000   0.000002  -0.000000
    19  H    0.000179   0.000290  -0.000025   0.000005   0.000004  -0.000032
    20  H    0.000000  -0.000000   0.000004  -0.000017   0.000000   0.000000
    21  H    0.000006  -0.000000  -0.000111   0.007650   0.000000  -0.000000
    22  H    0.000000  -0.000000  -0.000000   0.000000   0.022055  -0.000922
    23  H    0.000000  -0.000000   0.000000  -0.000000   0.000108   0.000004
    24  H   -0.033726  -0.028239   0.000060  -0.000001  -0.000000  -0.000000
    25  H    0.604650  -0.040315  -0.002750   0.000014  -0.000000   0.000000
    26  H   -0.040315   0.585540   0.000408   0.000001  -0.000000  -0.000000
    27  H   -0.002750   0.000408   0.369378  -0.018891   0.000000  -0.000000
    28  H    0.000014   0.000001  -0.018891   0.362811   0.000000  -0.000000
    29  O   -0.000000  -0.000000   0.000000   0.000000   8.253415   0.244993
    30  C    0.000000  -0.000000  -0.000000  -0.000000   0.244993   4.898764
    31  H    0.000000  -0.000000  -0.000000   0.000000  -0.000042   0.000002
    32  H    0.000000  -0.000000   0.000000  -0.000000  -0.032749   0.382163
    33  H    0.000000  -0.000000  -0.000000   0.000000  -0.038209   0.365986
    34  H    0.000000   0.000000  -0.000000   0.000000  -0.040038   0.363540
              31         32         33         34
     1  C    0.000358   0.000199   0.004624   0.004754
     2  C    0.002536   0.000009  -0.000039  -0.000405
     3  C    0.004998   0.002235  -0.004481  -0.001150
     4  C   -0.038596   0.000020  -0.000284   0.000143
     5  C   -0.031324  -0.000000  -0.000008   0.000010
     6  C    0.350103   0.000006   0.000000  -0.000041
     7  C   -0.000210  -0.000000   0.000008  -0.000009
     8  C    0.000002   0.000000  -0.000033   0.000019
     9  C    0.000007  -0.000000   0.000000  -0.000000
    10  C   -0.000000   0.000000  -0.000000   0.000000
    11  C   -0.000000   0.000000   0.000000  -0.000001
    12  C   -0.000000  -0.000000   0.000000  -0.000000
    13  N   -0.009771  -0.000010  -0.000007  -0.000007
    14  O    0.000000   0.000000   0.000000   0.000000
    15  C   -0.000000   0.000000  -0.000000  -0.000000
    16  N   -0.000000  -0.000000  -0.000000   0.000000
    17  H    0.000013  -0.000135   0.000627   0.002585
    18  H   -0.005069  -0.000000  -0.000000   0.000000
    19  H    0.000000  -0.000000   0.000158  -0.000064
    20  H    0.000006   0.000000   0.000000  -0.000000
    21  H    0.000000   0.000000  -0.000000  -0.000000
    22  H   -0.000078  -0.000103   0.000079   0.000068
    23  H    0.007782  -0.000001   0.000000   0.000000
    24  H    0.000000  -0.000000  -0.000000  -0.000000
    25  H    0.000000   0.000000   0.000000   0.000000
    26  H   -0.000000  -0.000000  -0.000000   0.000000
    27  H   -0.000000   0.000000  -0.000000  -0.000000
    28  H    0.000000  -0.000000   0.000000   0.000000
    29  O   -0.000042  -0.032749  -0.038209  -0.040038
    30  C    0.000002   0.382163   0.365986   0.363540
    31  H    0.580950  -0.000000  -0.000000  -0.000000
    32  H   -0.000000   0.535725  -0.032110  -0.030295
    33  H   -0.000000  -0.032110   0.583525  -0.040596
    34  H   -0.000000  -0.030295  -0.040596   0.581282
 Mulliken charges:
               1
     1  C   -0.317528
     2  C    0.111928
     3  C    0.341523
     4  C    0.323973
     5  C   -0.236583
     6  C   -0.228283
     7  C    0.098363
     8  C   -0.276139
     9  C   -0.222766
    10  C   -0.231009
    11  C    0.283070
    12  C    0.347562
    13  N   -0.838633
    14  O   -0.539792
    15  C   -0.214429
    16  N   -0.842375
    17  H    0.140644
    18  H    0.132178
    19  H    0.133296
    20  H    0.135953
    21  H    0.140519
    22  H    0.356200
    23  H    0.353457
    24  H    0.165923
    25  H    0.146986
    26  H    0.152000
    27  H    0.355662
    28  H    0.356232
    29  O   -0.545450
    30  C   -0.216821
    31  H    0.138331
    32  H    0.175046
    33  H    0.160758
    34  H    0.160202
 Sum of Mulliken charges =  -0.00000
 Mulliken charges with hydrogens summed into heavy atoms:
               1
     1  C   -0.176884
     2  C    0.111928
     3  C    0.341523
     4  C    0.323973
     5  C   -0.104405
     6  C   -0.089952
     7  C    0.098363
     8  C   -0.142843
     9  C   -0.086813
    10  C   -0.090490
    11  C    0.283070
    12  C    0.347562
    13  N   -0.128976
    14  O   -0.539792
    15  C    0.250480
    16  N   -0.130481
    29  O   -0.545450
    30  C    0.279186
 Electronic spatial extent (au):  <R**2>=           6065.1997
 Charge=              0.0000 electrons
 Dipole moment (field-independent basis, Debye):
    X=             -0.6629    Y=              1.2722    Z=              1.6290  Tot=              2.1706
 Quadrupole moment (field-independent basis, Debye-Ang):
   XX=            -68.1472   YY=            -85.0674   ZZ=           -111.9039
   XY=              1.5143   XZ=             -3.7298   YZ=              1.5845
 Traceless Quadrupole moment (field-independent basis, Debye-Ang):
   XX=             20.2256   YY=              3.3054   ZZ=            -23.5310
   XY=              1.5143   XZ=             -3.7298   YZ=              1.5845
 Octapole moment (field-independent basis, Debye-Ang**2):
  XXX=            -29.1601  YYY=             24.0868  ZZZ=             -1.1586  XYY=              8.5506
  XXY=            -25.3445  XXZ=             20.0230  XZZ=              0.7151  YZZ=             12.4849
  YYZ=              9.3474  XYZ=             -6.2222
 Hexadecapole moment (field-independent basis, Debye-Ang**3):
 XXXX=          -4567.5220 YYYY=          -1486.9358 ZZZZ=           -162.1399 XXXY=            -38.8528
 XXXZ=            -29.2558 YYYX=             37.5711 YYYZ=             -3.6819 ZZZX=              3.2021
 ZZZY=              0.3823 XXYY=           -980.6196 XXZZ=          -1114.4681 YYZZ=           -323.5544
 XXYZ=             20.7722 YYXZ=            -16.4024 ZZXY=              5.6467
 N-N= 1.254431111568D+03 E-N=-4.378453723085D+03  KE= 7.958065575872D+02
 D1PCM: PCM CHGder 1st derivatives, ID1Alg=3 FixD1E=F DoIter=F DoCFld=F I1PDM=0.
 Calling FoFJK, ICntrl=      2127 FMM=F ISym2X=0 I1Cent= 0 IOpClX= 0 NMat=1 NMatS=1 NMatT=0.
 ***** Axes restored to original set *****
 -------------------------------------------------------------------
 Center     Atomic                   Forces (Hartrees/Bohr)
 Number     Number              X              Y              Z
 -------------------------------------------------------------------
      1        6           0.024126539    0.008656623    0.014831073
      2        6          -0.019294745   -0.002470803    0.041513322
      3        6           0.007100092    0.003705846   -0.039913870
      4        6          -0.006911283   -0.004104593    0.006188169
      5        6          -0.018642044   -0.006410449    0.000961592
      6        6          -0.000677575   -0.002352259   -0.019409632
      7        6           0.015515886    0.000054587   -0.040341702
      8        6           0.023200940    0.007414408    0.002277568
      9        6          -0.015128093   -0.002294646   -0.015659986
     10        6          -0.015992025   -0.001474655    0.014287565
     11        6          -0.027060521   -0.020552772    0.031725359
     12        6          -0.002864911    0.009417541   -0.005058731
     13        7          -0.003480102    0.001195086    0.022327410
     14        8           0.009856174   -0.014390869   -0.003255962
     15        6           0.008738245    0.018096732   -0.002930029
     16        7           0.007233921   -0.000389184   -0.016308003
     17        1          -0.007399039   -0.002837086   -0.001258023
     18        1           0.009854821    0.003149240    0.002645186
     19        1          -0.008328644    0.001616919   -0.002873788
     20        1           0.009902634    0.001383657    0.003815642
     21        1           0.007720978    0.001271250    0.007565291
     22        1          -0.017382228   -0.004459321    0.004632173
     23        1           0.011630754    0.004888691    0.015273258
     24        1          -0.012363588    0.000508265   -0.000839446
     25        1           0.004701014    0.004887699    0.010019948
     26        1           0.004984672   -0.001594779   -0.010425796
     27        1          -0.011531788   -0.005498720   -0.015289736
     28        1           0.020192510    0.003427092   -0.006066717
     29        8          -0.017899390   -0.007517433    0.009150673
     30        6           0.012132632    0.005184244    0.001161609
     31        1           0.010379748    0.002923343   -0.000414208
     32        1          -0.005785135   -0.003523563   -0.011251517
     33        1          -0.003594971    0.012209782    0.001297022
     34        1           0.007064523   -0.010119874    0.001624283
 -------------------------------------------------------------------
 Cartesian Forces:  Max     0.041513322 RMS     0.012726946

 GradGradGradGradGradGradGradGradGradGradGradGradGradGradGradGradGradGrad
 Berny optimization.
 FormGI is forming the generalized inverse of G from B-inverse, IUseBI=4.
 Internal  Forces:  Max     0.052763331 RMS     0.009643361
 Search for a local minimum.
 Step number   1 out of a maximum of  171
 All quantities printed in internal units (Hartrees-Bohrs-Radians)
 Mixed Optimization -- RFO/linear search
 Second derivative matrix not updated -- first step.
 ITU=  0
     Eigenvalues ---    0.01607   0.01615   0.01892   0.01980   0.01986
     Eigenvalues ---    0.02008   0.02022   0.02044   0.02060   0.02077
     Eigenvalues ---    0.02078   0.02079   0.02095   0.02102   0.02126
     Eigenvalues ---    0.02159   0.02166   0.02168   0.02181   0.02188
     Eigenvalues ---    0.02233   0.02243   0.02252   0.02436   0.02436
     Eigenvalues ---    0.02441   0.02441   0.10322   0.10478   0.10723
     Eigenvalues ---    0.10838   0.15997   0.15998   0.15998   0.15999
     Eigenvalues ---    0.16000   0.16000   0.16000   0.16000   0.16000
     Eigenvalues ---    0.16000   0.16000   0.16000   0.16000   0.16000
     Eigenvalues ---    0.16000   0.16000   0.22335   0.22366   0.23345
     Eigenvalues ---    0.23455   0.24344   0.24504   0.24587   0.24957
     Eigenvalues ---    0.24961   0.24997   0.24998   0.24999   0.25000
     Eigenvalues ---    0.25000   0.32153   0.32245   0.32248   0.32288
     Eigenvalues ---    0.32330   0.32393   0.33288   0.33376   0.33718
     Eigenvalues ---    0.33755   0.33791   0.34159   0.41276   0.41474
     Eigenvalues ---    0.41909   0.41911   0.43244   0.44580   0.44630
     Eigenvalues ---    0.44631   0.44666   0.44695   0.44727   0.44759
     Eigenvalues ---    0.45081   0.45658   0.45758   0.45981   0.45991
     Eigenvalues ---    0.46570   0.46762   0.50806   0.52338   0.56371
     Eigenvalues ---    0.56456
 RFO step:  Lambda=-4.14775930D-02 EMin= 1.60743655D-02
 Linear search not attempted -- first point.
 Maximum step size (   0.300) exceeded in Quadratic search.
    -- Step size scaled by   0.849
 Iteration  1 RMS(Cart)=  0.06349436 RMS(Int)=  0.00117456
 Iteration  2 RMS(Cart)=  0.00162348 RMS(Int)=  0.00023005
 Iteration  3 RMS(Cart)=  0.00000174 RMS(Int)=  0.00023005
 Iteration  4 RMS(Cart)=  0.00000000 RMS(Int)=  0.00023005
 Variable       Old X    -DE/DX   Delta X   Delta X   Delta X     New X
                                 (Linear)    (Quad)   (Total)
    R1        2.65963   0.00557   0.00000   0.00937   0.00924   2.66887
    R2        2.65450  -0.00870   0.00000  -0.01512  -0.01507   2.63943
    R3        2.07063  -0.00755   0.00000  -0.01673  -0.01673   2.05390
    R4        2.65198   0.00743   0.00000   0.01248   0.01230   2.66427
    R5        2.67369   0.05276   0.00000   0.09452   0.09452   2.76821
    R6        2.64035   0.01471   0.00000   0.02520   0.02539   2.66574
    R7        2.59061  -0.00413   0.00000  -0.00639  -0.00639   2.58422
    R8        2.62894   0.01248   0.00000   0.02102   0.02115   2.65009
    R9        2.53861   0.04292   0.00000   0.06012   0.06012   2.59873
   R10        2.63404   0.00157   0.00000   0.00266   0.00260   2.63665
   R11        2.07745  -0.00939   0.00000  -0.02103  -0.02103   2.05642
   R12        2.08397  -0.01062   0.00000  -0.02404  -0.02404   2.05993
   R13        2.65459   0.00588   0.00000   0.00997   0.00986   2.66445
   R14        2.65515   0.00802   0.00000   0.01347   0.01334   2.66849
   R15        2.64465  -0.00370   0.00000  -0.00615  -0.00614   2.63852
   R16        2.07684  -0.00793   0.00000  -0.01774  -0.01774   2.05910
   R17        2.63845  -0.00242   0.00000  -0.00428  -0.00430   2.63414
   R18        2.07809  -0.00949   0.00000  -0.02127  -0.02127   2.05682
   R19        2.63169   0.01460   0.00000   0.02453   0.02464   2.65633
   R20        2.08548  -0.01085   0.00000  -0.02461  -0.02461   2.06088
   R21        2.63759   0.01562   0.00000   0.02672   0.02687   2.66446
   R22        2.57577   0.01753   0.00000   0.02634   0.02634   2.60211
   R23        2.53933   0.04077   0.00000   0.05720   0.05720   2.59653
   R24        1.92332  -0.00964   0.00000  -0.01676  -0.01676   1.90656
   R25        1.92294  -0.01044   0.00000  -0.01813  -0.01813   1.90481
   R26        2.65767   0.02297   0.00000   0.04002   0.04002   2.69769
   R27        2.10244  -0.01238   0.00000  -0.02881  -0.02881   2.07363
   R28        2.10131  -0.00851   0.00000  -0.01977  -0.01977   2.08154
   R29        2.10399  -0.01057   0.00000  -0.02466  -0.02466   2.07932
   R30        1.92408  -0.01024   0.00000  -0.01783  -0.01783   1.90626
   R31        1.92407  -0.01072   0.00000  -0.01867  -0.01867   1.90540
   R32        2.65665   0.01155   0.00000   0.02010   0.02010   2.67675
   R33        2.10321  -0.01309   0.00000  -0.03051  -0.03051   2.07270
   R34        2.10565  -0.01086   0.00000  -0.02539  -0.02539   2.08026
   R35        2.10393  -0.01018   0.00000  -0.02374  -0.02374   2.08020
    A1        2.17991  -0.00720   0.00000  -0.02422  -0.02431   2.15559
    A2        2.08401   0.00079   0.00000   0.00025   0.00030   2.08431
    A3        2.01914   0.00641   0.00000   0.02393   0.02397   2.04312
    A4        2.01571  -0.00020   0.00000  -0.00192  -0.00226   2.01345
    A5        2.14138  -0.00319   0.00000  -0.00862  -0.00845   2.13292
    A6        2.12606   0.00340   0.00000   0.01056   0.01073   2.13679
    A7        2.02816   0.02007   0.00000   0.05922   0.05943   2.08759
    A8        2.19293  -0.00273   0.00000  -0.00798  -0.00814   2.18478
    A9        2.06080  -0.01728   0.00000  -0.05041  -0.05059   2.01021
   A10        2.12138  -0.02151   0.00000  -0.06149  -0.06115   2.06023
   A11        2.08343   0.00296   0.00000   0.00804   0.00787   2.09130
   A12        2.07831   0.01856   0.00000   0.05350   0.05332   2.13163
   A13        2.12726   0.00209   0.00000   0.00609   0.00584   2.13310
   A14        2.14301  -0.00633   0.00000  -0.02533  -0.02521   2.11780
   A15        2.01282   0.00424   0.00000   0.01919   0.01931   2.03212
   A16        2.09311   0.00679   0.00000   0.02272   0.02281   2.11592
   A17        2.09780  -0.00537   0.00000  -0.01967  -0.01972   2.07808
   A18        2.09226  -0.00142   0.00000  -0.00304  -0.00308   2.08917
   A19        2.13462   0.00066   0.00000   0.00257   0.00273   2.13735
   A20        2.14314  -0.00016   0.00000   0.00016   0.00031   2.14345
   A21        2.00534  -0.00050   0.00000  -0.00268  -0.00299   2.00234
   A22        2.17406  -0.00459   0.00000  -0.01513  -0.01531   2.15876
   A23        2.12452  -0.00131   0.00000  -0.00764  -0.00755   2.11697
   A24        1.98454   0.00589   0.00000   0.02271   0.02280   2.00734
   A25        2.13441   0.00247   0.00000   0.00673   0.00649   2.14090
   A26        2.13955  -0.00638   0.00000  -0.02505  -0.02495   2.11459
   A27        2.00922   0.00391   0.00000   0.01830   0.01840   2.02762
   A28        2.09572   0.00629   0.00000   0.02057   0.02060   2.11632
   A29        2.09294  -0.00231   0.00000  -0.00666  -0.00669   2.08625
   A30        2.09437  -0.00398   0.00000  -0.01377  -0.01380   2.08057
   A31        2.04708   0.01415   0.00000   0.04560   0.04538   2.09246
   A32        2.09561  -0.00045   0.00000   0.00101   0.00052   2.09613
   A33        2.12037  -0.01291   0.00000  -0.03599  -0.03668   2.08369
   A34        2.09790  -0.01736   0.00000  -0.04901  -0.04889   2.04901
   A35        2.09116   0.01367   0.00000   0.03966   0.03946   2.13062
   A36        2.09264   0.00379   0.00000   0.01070   0.01047   2.10311
   A37        2.01950   0.00950   0.00000   0.04005   0.04005   2.05955
   A38        2.02167   0.01144   0.00000   0.04819   0.04819   2.06986
   A39        2.24201  -0.02094   0.00000  -0.08824  -0.08824   2.15378
   A40        1.98222   0.00709   0.00000   0.02064   0.02064   2.00286
   A41        1.87938  -0.00215   0.00000  -0.00960  -0.00966   1.86972
   A42        1.89415   0.01182   0.00000   0.05069   0.05037   1.94452
   A43        1.91609   0.00496   0.00000   0.02058   0.02027   1.93636
   A44        1.91519  -0.00384   0.00000  -0.01547  -0.01556   1.89964
   A45        1.91503  -0.00272   0.00000  -0.01325  -0.01329   1.90174
   A46        1.94281  -0.00774   0.00000  -0.03157  -0.03209   1.91071
   A47        2.01375   0.00988   0.00000   0.04159   0.04151   2.05526
   A48        2.01346   0.01283   0.00000   0.05404   0.05396   2.06741
   A49        2.25597  -0.02272   0.00000  -0.09574  -0.09582   2.16014
   A50        2.08856  -0.00616   0.00000  -0.01795  -0.01795   2.07061
   A51        1.86179  -0.00261   0.00000  -0.00956  -0.00957   1.85222
   A52        1.91849   0.00630   0.00000   0.02562   0.02554   1.94403
   A53        1.91112   0.00681   0.00000   0.02808   0.02800   1.93912
   A54        1.89668  -0.00077   0.00000  -0.00214  -0.00215   1.89454
   A55        1.89735  -0.00030   0.00000   0.00068   0.00067   1.89801
   A56        1.97482  -0.00924   0.00000  -0.04159  -0.04173   1.93309
    D1        0.02841  -0.00061   0.00000  -0.00663  -0.00654   0.02186
    D2       -3.12223  -0.00040   0.00000  -0.00431  -0.00425  -3.12648
    D3       -3.09544  -0.00037   0.00000  -0.00420  -0.00420  -3.09963
    D4        0.03711  -0.00017   0.00000  -0.00188  -0.00190   0.03521
    D5       -0.04697   0.00060   0.00000   0.01041   0.01057  -0.03640
    D6       -3.13253  -0.00022   0.00000  -0.00603  -0.00629  -3.13882
    D7        3.07746   0.00033   0.00000   0.00787   0.00808   3.08554
    D8       -0.00810  -0.00049   0.00000  -0.00857  -0.00878  -0.01688
    D9        0.00322  -0.00025   0.00000  -0.00230  -0.00221   0.00100
   D10       -3.12297   0.00016   0.00000   0.00224   0.00220  -3.12077
   D11       -3.12942  -0.00041   0.00000  -0.00449  -0.00441  -3.13383
   D12        0.02758  -0.00001   0.00000   0.00005   0.00001   0.02758
   D13        0.17519   0.00126   0.00000   0.01856   0.01858   0.19377
   D14       -2.98157   0.00168   0.00000   0.02314   0.02313  -2.95845
   D15       -2.97601   0.00146   0.00000   0.02095   0.02096  -2.95505
   D16        0.15042   0.00187   0.00000   0.02553   0.02551   0.17592
   D17        0.03460  -0.00052   0.00000  -0.00793  -0.00796   0.02664
   D18       -3.11920  -0.00003   0.00000  -0.00302  -0.00320  -3.12240
   D19        3.12458   0.00061   0.00000   0.00830   0.00827   3.13285
   D20       -0.02921   0.00110   0.00000   0.01321   0.01303  -0.01618
   D21        0.13364   0.00003   0.00000  -0.00280  -0.00308   0.13056
   D22       -2.95097  -0.00190   0.00000  -0.02272  -0.02243  -2.97340
   D23       -0.00649   0.00030   0.00000   0.00164   0.00147  -0.00502
   D24        3.12889   0.00034   0.00000   0.00298   0.00287   3.13176
   D25       -3.13592  -0.00008   0.00000  -0.00295  -0.00307  -3.13899
   D26       -0.00054  -0.00005   0.00000  -0.00161  -0.00168  -0.00221
   D27        0.01369   0.00005   0.00000  -0.00004  -0.00012   0.01357
   D28       -3.12633  -0.00023   0.00000  -0.00366  -0.00374  -3.13007
   D29       -3.13980   0.00025   0.00000   0.00394   0.00402  -3.13578
   D30        0.00336  -0.00003   0.00000   0.00033   0.00041   0.00377
   D31       -0.01357   0.00042   0.00000   0.00460   0.00457  -0.00899
   D32        3.13422   0.00040   0.00000   0.00332   0.00323   3.13744
   D33        3.11370  -0.00004   0.00000   0.00001  -0.00000   3.11370
   D34       -0.02170  -0.00006   0.00000  -0.00127  -0.00135  -0.02305
   D35       -3.06584  -0.00171   0.00000  -0.02049  -0.02026  -3.08610
   D36        0.08828  -0.00113   0.00000  -0.01490  -0.01491   0.07336
   D37        0.08981  -0.00209   0.00000  -0.02476  -0.02449   0.06532
   D38       -3.03926  -0.00151   0.00000  -0.01916  -0.01914  -3.05840
   D39       -3.10714  -0.00108   0.00000  -0.01179  -0.01151  -3.11865
   D40        0.03768  -0.00002   0.00000  -0.00107  -0.00117   0.03651
   D41        0.02031  -0.00069   0.00000  -0.00748  -0.00724   0.01307
   D42       -3.11805   0.00037   0.00000   0.00324   0.00309  -3.11495
   D43       -0.17372   0.00259   0.00000   0.04225   0.04276  -0.13096
   D44       -3.10432   0.00008   0.00000  -0.00834  -0.00915  -3.11347
   D45        2.95624   0.00202   0.00000   0.03688   0.03754   2.99378
   D46        0.02564  -0.00050   0.00000  -0.01371  -0.01437   0.01127
   D47       -0.04008   0.00138   0.00000   0.01490   0.01477  -0.02531
   D48        3.12057   0.00094   0.00000   0.00651   0.00615   3.12672
   D49        3.09850   0.00037   0.00000   0.00485   0.00484   3.10334
   D50       -0.02403  -0.00007   0.00000  -0.00353  -0.00378  -0.02781
   D51       -0.04717   0.00135   0.00000   0.01005   0.00943  -0.03774
   D52       -3.13017  -0.00086   0.00000  -0.01690  -0.01729   3.13573
   D53        3.07535   0.00181   0.00000   0.01852   0.01810   3.09345
   D54       -0.00765  -0.00040   0.00000  -0.00843  -0.00862  -0.01627
   D55        0.14641  -0.00254   0.00000  -0.03473  -0.03471   0.11170
   D56       -3.05382   0.00001   0.00000  -0.00679  -0.00742  -3.06124
   D57        3.07383   0.00168   0.00000   0.02157   0.02151   3.09534
   D58       -0.12641   0.00422   0.00000   0.04951   0.04881  -0.07760
   D59       -1.64698   0.00466   0.00000   0.05354   0.05291  -1.59407
   D60        1.71465  -0.00137   0.00000  -0.00947  -0.00884   1.70581
   D61        3.10913   0.00266   0.00000   0.03710   0.03746  -3.13659
   D62       -0.03700   0.00084   0.00000   0.01361   0.01397  -0.02303
   D63        0.02595   0.00117   0.00000   0.01226   0.01190   0.03785
   D64       -3.12018  -0.00065   0.00000  -0.01123  -0.01159  -3.13177
   D65        2.94583   0.00024   0.00000   0.01086   0.01082   2.95664
   D66       -1.26527   0.00095   0.00000   0.01488   0.01455  -1.25072
[...]
 00049243,-0.00027526,-0.00009226,0.00005111,0.00003726,0.00010024,-0.0
 0003262,0.00015124,-0.00001787,0.00001792,-0.00010688,0.00005559,-0.00
 010858,-0.00023548,-0.00006756,-0.00001507,-0.00105165,0.00003816,0.00
 002558,-0.00000468,-0.00000282,0.00002753,-0.00000757,-0.00000171,0.00
 002351,0.00001798,-0.00006054,-0.00007467,-0.00000358,0.00004010,-0.00
 009804,0.00003117,0.20198019,0.19647149,-0.02578582,-0.02046124,-0.039
 77718,0.00308990,0.00098494,-0.00116850,-0.04424241,-0.04351683,-0.215
 86010,-0.01222400,-0.00753109,-0.00531200,-0.00031299,-0.00023026,-0.0
 0767845,0.00588278,0.00314262,0.00504351,-0.00222107,-0.00119513,0.000
 47027,-0.00007237,0.00009535,-0.00024408,0.00059180,0.00003008,-0.0007
 9067,0.00012592,0.00008668,-0.00024635,-0.00079317,0.00004773,-0.00029
 881,-0.00012452,-0.00017810,0.00092418,0.00404870,-0.00071983,0.006912
 32,0.00077377,0.00016043,-0.00021492,-0.00019094,-0.00034856,-0.000029
 84,0.00038213,0.00050015,-0.00110571,-0.00055313,0.00054262,0.00243403
 ,-0.00020283,-0.00031939,-0.00023107,-0.00018563,0.00005188,0.00020340
 ,0.00005758,-0.00009800,0.00026218,-0.00001357,0.00002200,-0.00022102,
 -0.00089660,0.00152120,0.00113619,0.00052929,0.00167031,0.00057509,0.0
 0006553,0.00004232,-0.00000955,-0.00000494,0.00004661,-0.00001235,-0.0
 0000527,0.00003884,0.00002675,-0.00009479,-0.00012115,-0.00000225,0.00
 005566,-0.00015311,0.00004698,0.04955802,0.05662342,0.34290384,0.00432
 120,0.00336190,0.00335743,-0.00018792,-0.00034852,0.00067690,-0.034181
 08,-0.01893037,-0.01380570,0.00451721,0.00107852,0.00340604,0.00040628
 ,0.00000240,0.00288503,-0.00099581,-0.00136193,-0.00184375,0.00057383,
 0.00038001,-0.00039052,0.00006640,0.00000536,0.00021330,-0.00020349,-0
 .00006403,0.00026777,-0.00014056,-0.00000084,0.00012093,0.00039138,-0.
 00004172,0.00016183,0.00008584,0.00008901,-0.00047312,0.00027018,0.000
 77141,-0.00303049,-0.00038000,-0.00007983,0.00009513,0.00009508,0.0001
 7357,0.00002361,-0.00020311,-0.00026533,0.00058034,-0.00086833,-0.0002
 6477,-0.00007014,-0.00007568,0.00026935,0.00018043,0.00007626,-0.00001
 235,-0.00004840,-0.00003774,0.00003263,-0.00012746,0.00001215,-0.00000
 253,0.00009497,-0.00080305,-0.00026419,0.00094848,0.00010395,-0.000215
 03,0.00021502,-0.00003204,-0.00002107,0.00000471,0.00000173,-0.0000220
 6,0.00000388,0.00000339,-0.00002075,-0.00001486,0.00005219,0.00006367,
 0.00000371,-0.00003213,0.00008209,-0.00002542,-0.16788410,-0.06448517,
 0.01873958,0.49147460,0.00248296,0.00129189,0.00195212,-0.00051514,0.0
 0018682,0.00051709,-0.02019243,-0.01866020,-0.00732554,0.00134748,0.00
 312098,0.00074738,0.00002731,0.00043852,0.00150559,-0.00123829,0.00032
 038,-0.00100411,0.00043495,0.00016306,-0.00025713,0.00002382,-0.000030
 40,0.00004156,-0.00010470,-0.00001697,0.00019809,-0.00006199,-0.000000
 45,0.00005680,0.00023127,-0.00003387,0.00012809,0.00002207,0.00004886,
 -0.00028605,0.00079244,0.00082367,-0.00132103,-0.00021531,-0.00005176,
 0.00005454,0.00005663,0.00010458,0.00001134,-0.00011272,-0.00015167,0.
 00033550,-0.00028574,-0.00075029,-0.00008085,0.00012481,-0.00013229,0.
 00014159,0.00003527,0.00002357,-0.00004004,-0.00002096,0.00002131,-0.0
 0006048,0.00000738,-0.00000392,0.00005528,-0.00103476,-0.00106154,0.00
 103763,0.00015516,0.00004907,0.00017042,-0.00001769,-0.00001269,0.0000
 0134,0.00000162,-0.00001328,0.00000506,-0.00000074,-0.00001062,-0.0000
 0914,0.00002912,0.00003690,0.00000165,-0.00001902,0.00005002,-0.000014
 35,-0.06250844,-0.09806904,0.00734132,-0.05196608,0.54977447,-0.004023
 18,-0.00265393,-0.00174176,-0.00017911,-0.00002633,0.00052058,-0.03076
 332,-0.01795044,0.00427109,-0.00075570,-0.00147047,-0.00731186,-0.0003
 9782,-0.00023591,-0.00019459,-0.00091588,-0.00054792,0.00065753,-0.000
 03961,-0.00002666,0.00017801,-0.00002885,0.00002919,-0.00004472,0.0000
 1010,0.00001120,-0.00004785,0.00003399,-0.00000223,-0.00001264,-0.0000
 6408,0.00001312,-0.00004826,-0.00001098,-0.00001678,0.00009648,0.00101
 980,-0.00009877,0.00087542,0.00007518,0.00001797,-0.00001528,-0.000018
 60,-0.00003578,-0.00000905,0.00004154,0.00005251,-0.00011588,-0.001640
 40,-0.00118292,-0.00191370,-0.00002875,-0.00001319,-0.00006722,0.00000
 787,-0.00002166,0.00000620,0.00001542,-0.00000901,0.00002573,-0.000002
 84,-0.00000070,-0.00001699,-0.00100158,0.00024001,0.00072976,0.0000406
 1,0.00032509,0.00027795,0.00000577,0.00000456,-0.00000029,-0.00000013,
 0.00000405,-0.00000061,-0.00000055,0.00000437,0.00000517,-0.00001038,-
 0.00001299,-0.00000171,0.00000680,-0.00001763,0.00000523,0.04544167,0.
 02414022,-0.09693120,0.03178369,0.02385789,0.62212241,0.00012995,0.000
 32940,-0.00047393,0.00281865,-0.00186565,0.00196535,0.00215661,-0.0027
 4877,-0.00251084,-0.01280865,-0.00855514,0.00660308,-0.00448607,-0.003
 22461,0.00014504,-0.25231955,-0.12288943,0.05419358,-0.00013130,-0.000
 45178,-0.00038286,0.00006825,0.00001709,0.00014859,-0.00007731,0.00003
 073,0.00003685,-0.00006914,0.00002209,0.00005881,0.00012014,0.00002215
 ,0.00001648,0.00005907,0.00002748,-0.00019396,0.00084264,0.00228128,0.
 00070465,-0.00014167,-0.00003289,0.00004405,0.00003554,0.00006466,0.00
 000715,-0.00008321,-0.00010739,0.00024016,-0.00023698,0.00019265,0.000
 02639,-0.00025838,0.00208031,-0.00010935,-0.00000622,-0.00000735,-0.00
 003779,0.00000868,-0.00001298,-0.00005793,0.00000613,0.00000084,0.0000
 3506,0.00005622,0.00028130,0.00008339,-0.00034984,-0.00038805,-0.00079
 298,-0.00001207,-0.00000809,0.00000176,0.00000067,-0.00000864,0.000002
 47,0.00000069,-0.00000721,-0.00000479,0.00002043,0.00002626,0.00000132
 ,-0.00001452,0.00003443,-0.00001040,-0.00136595,-0.00088041,-0.0000066
 3,0.00028214,0.00035805,-0.00035858,0.26598524,0.00023196,-0.00033406,
 -0.00052959,-0.00166398,0.00529966,-0.00035877,-0.00281610,0.00451988,
 -0.00209473,-0.01078713,-0.00223069,0.00462885,-0.00072743,0.00059837,
 -0.00003142,-0.12319401,-0.10135725,0.02682719,-0.00036737,0.00050976,
 -0.00009791,0.00001811,-0.00010597,0.00011880,0.00000825,-0.00009740,0
 .00003998,-0.00001760,-0.00000234,-0.00000217,0.00004341,-0.00004194,0
 .00009861,-0.00002822,0.00003089,-0.00008060,0.00116415,-0.00212169,0.
 00111577,-0.00006725,-0.00000220,0.00002848,0.00001606,0.00002821,-0.0
 0000053,-0.00002446,-0.00004046,0.00007783,0.00022325,-0.00044830,0.00
 008905,0.00206910,-0.00260460,0.00050925,0.00002714,-0.00001111,0.0000
 0599,-0.00003461,0.00002857,0.00001706,0.00000195,-0.00000302,0.000012
 84,0.00030333,-0.00047609,-0.00009139,0.00078421,0.00006876,-0.0009881
 1,-0.00000512,-0.00000321,0.00000037,0.00000055,-0.00000359,0.00000102
 ,0.00000008,-0.00000393,-0.00000240,0.00000748,0.00000722,-0.00000156,
 -0.00000358,0.00001025,-0.00000463,-0.00093640,-0.00041315,0.00003366,
 0.00034888,-0.00015802,-0.00017744,0.13554816,0.09943493,-0.00054364,-
 0.00027671,-0.00103832,0.00076366,-0.00080504,-0.00522927,-0.00106165,
 -0.00159067,-0.00344361,-0.02055047,-0.01124316,0.00774915,0.02684503,
 0.01567419,-0.00230975,0.05454165,0.02707605,-0.07386339,0.00128615,0.
 00060380,0.00047880,-0.00004217,0.00009127,-0.00048657,0.00004278,-0.0
 0006394,0.00003298,0.00004857,-0.00000340,-0.00006803,-0.00004669,-0.0
 0005147,-0.00000229,-0.00005083,-0.00001805,0.00019069,-0.00059894,0.0
 0039669,0.00253915,0.00017862,0.00003050,-0.00008874,-0.00004190,-0.00
 007683,-0.00000811,0.00007296,0.00009353,-0.00021803,0.00007428,0.0000
 8780,0.00012595,-0.00056930,0.00017409,0.00126512,0.00000709,0.0000176
 7,0.00003495,-0.00001977,0.00001895,0.00002123,-0.00000413,0.00000150,
 -0.00004108,0.00004963,0.00012416,0.00016160,0.00060538,-0.00020921,-0
 .00065589,0.00001356,0.00000973,-0.00000206,0.00000027,0.00001107,-0.0
 0000290,-0.00000070,0.00000885,0.00000525,-0.00001674,-0.00002404,0.00
 000050,0.00001224,-0.00003010,0.00000824,-0.00129683,-0.00072315,0.000
 60069,-0.00007643,-0.00001232,-0.00028060,-0.05948008,-0.02920929,0.07
 447820,-0.00034788,-0.00034246,0.00090201,0.00008885,-0.00003902,-0.00
 031412,-0.00237080,-0.00152401,0.00361821,-0.00056095,-0.00072560,-0.0
 0186559,0.00009565,0.00006698,-0.00020132,-0.00028000,-0.00009157,0.00
 059243,-0.00007020,-0.00005151,0.00004973,-0.00001498,0.00000262,-0.00
 002711,0.00002403,0.00000794,-0.00003632,0.00002091,-0.00000298,-0.000
 01350,-0.00004647,0.00000701,-0.00002575,-0.00001057,-0.00001427,0.000
 06458,0.00005034,-0.00004880,0.00020216,0.00004519,0.00000993,-0.00001
 108,-0.00001107,-0.00002049,-0.00000245,0.00002784,0.00003690,-0.00007
 869,0.00036957,0.00047516,-0.00013319,0.00001311,0.00000530,-0.0000446
 4,-0.00000221,-0.00000098,0.00000403,0.00000439,-0.00000291,0.00001455
 ,-0.00000181,0.00000058,-0.00001156,0.00001289,0.00004035,-0.00003711,
 -0.00001326,0.00004007,0.00001263,0.00000386,0.00000255,-0.00000041,-0
 .00000035,0.00000256,-0.00000056,-0.00000025,0.00000252,0.00000166,-0.
 00000719,-0.00000861,-0.00000057,0.00000454,-0.00001129,0.00000369,-0.
 02289721,-0.01724167,-0.02941913,-0.07397365,-0.01961055,-0.07230912,-
 0.00013222,-0.00005094,-0.00010795,0.09084610,-0.00035590,0.00013930,0
 .00045286,-0.00005220,0.00008817,-0.00017918,-0.00159263,-0.00016450,0
 .00234058,-0.00051519,-0.00015546,-0.00118785,0.00006673,0.00001845,-0
 .00014540,-0.00016351,-0.00005475,0.00037921,-0.00006115,-0.00000682,0
 .00004006,0.00000222,0.00000273,-0.00000975,0.00001667,0.00000510,-0.0
 0003045,0.00000984,-0.00000354,-0.00000795,-0.00003676,0.00000504,-0.0
 0001988,-0.00000323,-0.00000847,0.00004351,0.00003380,-0.00002236,0.00
 015273,0.00003223,0.00000719,-0.00000826,-0.00000828,-0.00001501,-0.00
 000124,0.00001748,0.00002414,-0.00005279,0.00040739,-0.00013007,-0.000
 02419,0.00001735,-0.00002326,-0.00002611,-0.00000707,0.00000020,0.0000
 0900,0.00000261,-0.00000140,0.00000971,-0.00000112,0.00000051,-0.00000
 833,-0.00000632,0.00003138,-0.00005271,-0.00000109,0.00000722,0.000017
 71,0.00000275,0.00000186,-0.00000029,-0.00000025,0.00000193,-0.0000007
 1,0.,0.00000156,0.00000123,-0.00000463,-0.00000560,-0.00000016,0.00000
 307,-0.00000762,0.00000229,-0.01418749,-0.00986546,-0.01720141,-0.0206
 3968,-0.07258549,-0.06642967,-0.00005636,-0.00007710,-0.00006068,0.034
 78548,0.07675208,0.00037194,0.00014390,-0.00068548,-0.00015988,-0.0001
 1266,0.00030810,0.00254702,0.00168473,0.00170436,0.00012549,0.00005177
 ,0.00015704,-0.00009303,-0.00005690,-0.00013605,0.00002962,0.00001871,
 -0.00003300,-0.00001159,0.00000721,0.00004250,0.00000522,-0.00001208,-
 0.00001741,0.00002219,0.00000595,-0.00000560,0.00001788,-0.00000167,-0
 .00002105,-0.00004920,0.00000280,-0.00001058,-0.00001362,-0.00000768,0
 .00004970,-0.00012724,-0.00005329,0.00015963,0.00004103,0.00000805,-0.
 00001167,-0.00001045,-0.00001812,-0.00000033,0.00002030,0.00002741,-0.
 00006202,-0.00054409,-0.00026992,0.00029858,-0.00004186,-0.00002335,-0
 .00000163,-0.00001840,0.00001076,0.00001235,-0.00000097,-0.00000231,0.
 00000767,-0.00000164,0.00000031,-0.00000927,0.00010853,0.00000811,-0.0
 0010249,-0.00001067,-0.00000284,-0.00002583,0.00000368,0.00000199,-0.0
 0000080,-0.00000038,0.00000254,-0.00000083,-0.00000061,0.00000184,0.00
 000122,-0.00000542,-0.00000675,0.00000026,0.00000353,-0.00000846,0.000
 00253,0.00280385,0.00271872,0.01046160,-0.08310566,-0.07310357,-0.2811
 9321,-0.00000160,0.00000205,0.00002299,0.08649082,0.07694337,0.2936753
 0,0.00024323,-0.00010696,-0.00031035,-0.00023984,-0.00039052,-0.000431
 85,0.00423414,0.00394405,0.00624880,-0.00126354,-0.00116950,-0.0006013
 1,0.00033070,0.00019262,-0.00076023,0.00030038,0.00005221,0.00090890,-
 0.00008226,-0.00005514,0.00011077,-0.00002266,0.00001620,-0.00003132,0
 .00001294,0.00000679,-0.00006058,0.00001250,-0.00000711,-0.00000219,-0
 .00003745,0.00000547,-0.00002722,-0.00000177,-0.00001204,0.00006131,-0
 .00012483,-0.00009485,0.00006849,0.00004508,0.00000848,-0.00001053,-0.
 00001071,-0.00001954,-0.00000395,0.00002615,0.00003388,-0.00007248,-0.
 00045950,0.00051196,-0.00098650,0.00001278,0.00002416,-0.00004416,0.00
 000227,-0.00000428,-0.00000046,0.00001063,-0.00000073,0.00001944,-0.00
 000186,0.00000117,-0.00001091,0.00051264,0.00028967,-0.00043313,-0.000
 05211,-0.00004991,-0.00009683,0.00000377,0.00000250,-0.00000045,-0.000
 00016,0.00000231,0.00000001,-0.00000059,0.00000275,0.00000241,-0.00000
 649,-0.00000743,-0.00000091,0.00000404,-0.00001071,0.00000342,-0.03677
 592,0.00332084,0.01369585,-0.15783377,0.10250804,0.06970313,-0.0000971
 6,0.00002069,-0.00003413,0.00995480,-0.00618800,-0.00408978,0.18338712
 ,0.00110943,0.00031145,-0.00102135,-0.00037132,-0.00053777,0.00006124,
 0.00106322,0.00260741,0.00227805,-0.00028974,-0.00080243,0.00027565,0.
 00029948,0.00001707,-0.00031469,0.00005990,-0.00004654,0.00041530,-0.0
 0003706,0.00001524,0.00006853,0.00001210,0.00000910,0.00000749,0.00001
 496,0.00000119,-0.00002366,0.00000689,-0.00000500,-0.00000914,-0.00004
 074,0.00000018,-0.00001255,-0.00000264,-0.00000913,0.00004016,-0.00018
 111,0.00000276,-0.00017023,0.00002909,0.00000629,-0.00000946,-0.000007
 46,-0.00001311,0.00000198,0.00001509,0.00002347,-0.00004992,-0.0008919
 4,0.00003719,-0.00008277,-0.00007660,0.00004246,-0.00000975,-0.0000134
 6,0.00000566,0.00002010,-0.00000309,0.00000124,0.00000444,-0.00000139,
 0.00000113,-0.00000716,0.00021533,0.00012020,-0.00017359,-0.00002416,-
 0.00006204,-0.00002685,0.00000266,0.00000160,-0.00000045,-0.00000047,0
 .00000191,-0.00000143,0.00000009,0.00000098,0.00000064,-0.00000407,-0.
 00000506,0.00000052,0.00000287,-0.00000708,0.00000206,-0.02075089,0.01
 386135,0.01022811,0.10688080,-0.15339356,-0.07097547,-0.00004112,0.000
 04700,-0.00000462,0.00526789,-0.00426436,-0.00231248,-0.10873356,0.156
 19971,0.00042943,0.00079932,0.00022310,-0.00007174,-0.00059635,-0.0002
 4090,-0.00185545,-0.00000872,-0.00059003,-0.00009515,-0.00010290,0.000
 58994,0.00036631,0.00013219,0.00012076,-0.00002504,-0.00004130,0.00013
 021,0.00002563,0.00005962,-0.00002368,0.00000053,0.00000379,0.00003063
 ,-0.00002337,-0.00000684,0.00001131,-0.00002516,-0.00000341,0.00002513
 ,0.00005866,-0.00000826,0.00001837,0.00001854,0.00000780,-0.00006547,0
 .00009993,0.00016096,-0.00041449,-0.00005449,-0.00001043,0.00001478,0.
 00001342,0.00002355,0.00000154,-0.00002733,-0.00003365,0.00007994,-0.0
 0137103,0.00028916,-0.00096342,-0.00001903,0.00009011,0.00001431,0.000
 01507,0.00000641,-0.00000467,-0.00000414,0.00000669,-0.00001108,0.0000
 0185,-0.00000041,0.00001304,-0.00015604,-0.00009794,0.00016374,0.00003
 036,-0.00003909,0.00003417,-0.00000473,-0.00000282,0.00000096,0.000000
 30,-0.00000320,0.00000103,0.00000076,-0.00000255,-0.00000272,0.0000070
 7,0.00000883,0.00000020,-0.00000452,0.00001106,-0.00000310,0.00978290,
 0.00159122,-0.00084827,0.07227973,-0.06997853,-0.10253004,0.00004647,0
 .00004094,0.00000937,0.01925585,-0.01815872,-0.01041718,-0.08538510,0.
 07424612,0.10548051,0.00067447,0.00066900,-0.00109511,-0.00076370,-0.0
 0012069,-0.00013384,0.00471231,0.00147724,0.00523293,-0.00143960,-0.00
 011857,-0.00031942,0.00033630,0.00023022,-0.00069707,0.00003243,0.0003
 2130,0.00079092,-0.00004258,-0.00002779,0.00009206,0.00001278,-0.00000
 383,-0.00003756,0.00002544,0.00000835,-0.00003526,0.00002238,-0.000007
 02,-0.00001861,-0.00006293,0.00000024,-0.00001423,-0.00001350,-0.00001
 531,0.00006390,-0.00001924,0.00002040,0.00006152,0.00005387,0.00000987
 ,-0.00001571,-0.00001310,-0.00002330,-0.00000052,0.00002843,0.00004018
 ,-0.00008484,-0.00012234,-0.00091769,-0.00025930,0.00001856,-0.0000949
 1,-0.00001305,-0.00001803,0.00001834,0.00000944,0.00000340,-0.00000092
 ,0.00001704,-0.00000218,0.00000162,-0.00001280,0.00027352,-0.00010002,
 -0.00023292,-0.00000518,-0.00003772,-0.00007257,0.00000478,0.00000285,
 -0.00000099,-0.00000036,0.00000322,-0.00000102,-0.00000065,0.00000272,
 0.00000159,-0.00000750,-0.00000891,0.00000016,0.00000473,-0.00001132,0
 .00000365,-0.00545452,-0.03558235,0.01975331,-0.06490134,0.04926617,-0
 .03563610,-0.00000079,-0.00009256,0.00000048,-0.00082101,0.00848322,-0
 .00430500,-0.00208252,0.01649101,-0.01331047,0.06956769,-0.00018818,-0
 .00007892,0.00023591,-0.00025391,0.00000418,-0.00048321,0.00319822,0.0
 0225159,0.00449806,-0.00112741,-0.00062360,-0.00069959,0.00031171,0.00
 007683,-0.00055737,0.00014044,0.00029212,0.00067672,-0.00004932,-0.000
 03789,0.00005732,0.00000228,0.00001728,-0.00001002,-0.00000401,0.00000
 307,-0.00004036,0.00000584,-0.00000421,0.00000786,-0.00002291,0.000002
 20,-0.00001773,0.00000679,-0.00001076,0.00002628,0.00008736,0.00007107
 ,0.00015132,0.00002138,0.00000763,-0.00000440,-0.00000624,-0.00001295,
 -0.00000318,0.00001200,0.00001925,-0.00003518,0.00039391,-0.00046661,-
 0.00087591,0.00005396,-0.00000632,-0.00003295,0.00000531,-0.00001182,-
 0.00000126,0.00000759,-0.00000020,0.00001279,-0.00000114,0.00000088,-0
 .00000484,0.00020036,0.00000137,-0.00020525,0.00000410,-0.00002171,-0.
 00005666,0.00000149,0.00000165,0.00000040,-0.00000010,0.00000143,-0.00
 000064,0.00000070,0.00000116,0.00000171,-0.00000318,-0.00000398,-0.000
 00036,0.00000197,-0.00000539,0.00000170,-0.01329193,-0.01738991,0.0088
 6383,0.04546666,-0.21131805,0.11320573,-0.00003100,-0.00004739,-0.0000
 1715,-0.00096619,0.01030439,-0.00564814,0.00590648,-0.01416848,0.01161
 732,-0.03988306,0.23115209,0.00090932,0.00009671,0.00015016,-0.0005409
 9,0.00020210,-0.00020839,-0.00081479,-0.00199760,-0.00053340,-0.000127
 28,0.00011091,0.00070321,0.00030043,0.00021598,0.00015834,-0.00009710,
 0.00000921,0.00007956,0.00008206,0.00000809,-0.00004091,0.00001446,0.0
 0001092,0.00001951,-0.00002650,-0.00000958,0.00002892,-0.00002068,-0.0
 0000183,0.00002015,0.00005264,-0.00000610,0.00001917,0.00001573,0.0000
 0915,-0.00006558,0.00002837,0.00007121,-0.00045967,-0.00005036,-0.0000
 1016,0.00001368,0.00001305,0.00002331,0.00000158,-0.00002765,-0.000035
 27,0.00007973,-0.00028303,-0.00142214,-0.00057075,0.00004836,-0.000045
 84,0.00003212,0.00001310,-0.00000925,-0.00001454,-0.00000401,0.0000067
 7,-0.00001647,0.00000178,0.00000027,0.00001297,-0.00007041,-0.00004344
 ,0.00014484,0.00000604,-0.00002061,0.00001354,-0.00000433,-0.00000268,
 0.00000069,0.00000045,-0.00000308,0.00000100,0.,-0.00000288,-0.0000019
 8,0.00000691,0.00000878,0.00000040,-0.00000452,0.00001173,-0.00000347,
 0.00727935,0.00736381,-0.00101870,-0.03303056,0.11533283,-0.13729410,0
 .00006110,0.00002279,0.00001377,-0.00657220,0.02321347,-0.01416939,0.0
 0257184,-0.01244482,0.00915201,0.03026941,-0.13066275,0.14375199\\0.00
 000169,-0.00000245,-0.00000088,-0.00000428,-0.00000063,0.00000694,-0.0
 0000596,0.00000704,-0.00000813,-0.00000074,0.00000078,0.00001790,0.000
 00381,0.00000196,-0.00000241,0.00000042,-0.00000397,-0.00000163,-0.000
 00013,0.00000189,-0.00000697,0.00000111,0.00000066,-0.00000031,0.00000
 152,-0.00000159,0.00000353,0.00000228,-0.00000125,0.00000333,-0.000012
 37,0.00000070,0.00000422,0.00000099,0.00000119,-0.00000243,-0.00000534
 ,-0.00000353,-0.00002004,0.00000567,-0.00000693,0.00000081,0.00000279,
 0.00000695,-0.00000130,0.00000159,0.00000300,0.00000342,-0.00000013,-0
 .00000105,0.00000142,-0.00000166,0.00000041,0.00000123,0.00000147,0.00
 000075,-0.00000174,0.00000014,-0.00000023,-0.00000309,0.00000001,0.,-0
 .00000126,0.00000204,-0.00000362,0.00000178,0.00000027,0.00000831,0.00
 000465,0.00000083,-0.00000034,-0.00000020,-0.00000005,-0.00000108,0.00
 000079,-0.00000023,-0.00000177,0.00000143,0.00000467,-0.00000216,-0.00
 000225,-0.00000244,-0.00000142,-0.00000390,0.00000425,-0.00000576,0.00
 000485,-0.00000093,0.00000490,-0.00000120,0.00000005,-0.00000072,-0.00
 000008,-0.00000095,0.00000135,0.00000052,-0.00000013,-0.00000101,0.000
 00159,-0.00000027,-0.00000038,-0.00000059\\\@
 The archive entry for this job was punched.


 THERE ARE TWO THINGS THAT EVERYBODY THINKS THEY CAN DO BETTER THAN
 ANYONE ELSE - PUNCH THE FIRE, AND EDIT A DAILY PAPER.
 -- UNCLE ESEK, "CENTURY MAGAZINE", 1885
 Job cpu time:       0 days  2 hours 59 minutes 28.8 seconds.
 Elapsed time:       0 days  0 hours 22 minutes 29.2 seconds.
 File lengths (MBytes):  RWF=    479 Int=      0 D2E=      0 Chk=     19 Scr=      1
 Normal termination of Gaussian 16 at Fri Oct 28 15:34:15 2022.
