 Entering Gaussian System, Link 0=g16
 Input=Conformes_1_MM_water_ESP.gjf
 Output=Conformes_1_MM_water_ESP.log
 Initial command:
 /home/Programs/g16_gost/l1.exe "/storage/users/gost/Gau-2123.inp" -scrdir="/storage/users/gost/"
 Entering Link 1 = /home/Programs/g16_gost/l1.exe PID=      2124.
  
 Copyright (c) 1988-2019, Gaussian, Inc.  All Rights Reserved.
  
 This is part of the Gaussian(R) 16 program.  It is based on
 the Gaussian(R) 09 system (copyright 2009, Gaussian, Inc.),
 the Gaussian(R) 03 system (copyright 2003, Gaussian, Inc.),
 the Gaussian(R) 98 system (copyright 1998, Gaussian, Inc.),
 the Gaussian(R) 94 system (copyright 1995, Gaussian, Inc.),
 the Gaussian 92(TM) system (copyright 1992, Gaussian, Inc.),
 the Gaussian 90(TM) system (copyright 1990, Gaussian, Inc.),
 the Gaussian 88(TM) system (copyright 1988, Gaussian, Inc.),
 the Gaussian 86(TM) system (copyright 1986, Carnegie Mellon
 University), and the Gaussian 82(TM) system (copyright 1983,
 Carnegie Mellon University). Gaussian is a federally registered
 trademark of Gaussian, Inc.
  
 This software contains proprietary and confidential information,
 including trade secrets, belonging to Gaussian, Inc.
  
 This software is provided under written license and may be
 used, copied, transmitted, or stored only in accord with that
 written license.
  
 The following legend is applicable only to US Government
 contracts under FAR:
  
                    RESTRICTED RIGHTS LEGEND
  
 Use, reproduction and disclosure by the US Government is
 subject to restrictions as set forth in subparagraphs (a)
 and (c) of the Commercial Computer Software - Restricted
 Rights clause in FAR 52.227-19.
  
 Gaussian, Inc.
 340 Quinnipiac St., Bldg. 40, Wallingford CT 06492
  
  
 ---------------------------------------------------------------
 Warning -- This program may not be used in any manner that
 competes with the business of Gaussian, Inc. or will provide
 assistance to any competitor of Gaussian, Inc.  The licensee
 of this program is prohibited from giving any competitor of
 Gaussian, Inc. access to this program.  By using this program,
 the user acknowledges that Gaussian, Inc. is engaged in the
 business of creating and licensing software in the field of
 computational chemistry and represents and warrants to the
 licensee that it is not a competitor of Gaussian, Inc. and that
 it will not use this program in any manner prohibited above.
 ---------------------------------------------------------------
  

 Cite this work as:
 Gaussian 16, Revision C.01,
 M. J. Frisch, G. W. Trucks, H. B. Schlegel, G. E. Scuseria, 
 M. A. Robb, J. R. Cheeseman, G. Scalmani, V. Barone, 
 G. A. Petersson, H. Nakatsuji, X. Li, M. Caricato, A. V. Marenich, 
 J. Bloino, B. G. Janesko, R. Gomperts, B. Mennucci, H. P. Hratchian, 
 J. V. Ortiz, A. F. Izmaylov, J. L. Sonnenberg, D. Williams-Young, 
 F. Ding, F. Lipparini, F. Egidi, J. Goings, B. Peng, A. Petrone, 
 T. Henderson, D. Ranasinghe, V. G. Zakrzewski, J. Gao, N. Rega, 
 G. Zheng, W. Liang, M. Hada, M. Ehara, K. Toyota, R. Fukuda, 
 J. Hasegawa, M. Ishida, T. Nakajima, Y. Honda, O. Kitao, H. Nakai, 
 T. Vreven, K. Throssell, J. A. Montgomery, Jr., J. E. Peralta, 
 F. Ogliaro, M. J. Bearpark, J. J. Heyd, E. N. Brothers, K. N. Kudin, 
 V. N. Staroverov, T. A. Keith, R. Kobayashi, J. Normand, 
 K. Raghavachari, A. P. Rendell, J. C. Burant, S. S. Iyengar, 
 J. Tomasi, M. Cossi, J. M. Millam, M. Klene, C. Adamo, R. Cammi, 
 J. W. Ochterski, R. L. Martin, K. Morokuma, O. Farkas, 
 J. B. Foresman, and D. J. Fox, Gaussian, Inc., Wallingford CT, 2019.
 
 ******************************************
 Gaussian 16:  EM64L-G16RevC.01  3-Jul-2019
                11-Nov-2022 
 ******************************************
 %chk=Conformes_1_MM_water_ESP.chk
 %mem=32GB
 %nprocshared=8
 Will use up to    8 processors via shared memory.
 ----------------------------------------------------------------------
 # HF 6-31G* scf=nosymm test pop=MK iop(6/33=2) iop(6/42=6) geom=distan
 ce
 ----------------------------------------------------------------------
 1/38=1,172=1/1;
 2/9=2,12=2,17=6,18=5,40=1/2;
 3/5=1,6=6,7=1,11=9,25=1,30=1/1,2,3;
 4/9=2/1;
 5/5=2,38=5/2;
 6/7=2,8=2,9=2,10=2,15=8,20=1,28=1,33=2,42=6/1,2;
 99/5=1,9=1/99;
 ------------------
 ESP of conformer 1
 ------------------
 Symbolic Z-matrix:
 Charge =  0 Multiplicity = 1
 C                    -1.76525   0.61628   0.14249 
 C                    -0.76092  -0.28719  -0.26759 
 C                    -3.10402   0.23982   0.17536 
 C                    -3.49888  -1.06803  -0.19992 
 C                    -1.15835  -1.57809  -0.64112 
 C                    -2.50124  -1.959    -0.60634 
 C                     0.66294   0.12843  -0.30314 
 C                     1.69611  -0.78445  -0.02019 
 C                     1.04256   1.44335  -0.62708 
 C                     2.38022   1.83045  -0.66948 
 C                     3.03174  -0.40346  -0.06119 
 C                     3.40731   0.91704  -0.38563 
 N                    -4.84319  -1.43766  -0.09306 
 O                     4.03456  -1.33187   0.1811 
 C                     4.39469  -1.45507   1.56424 
 N                     4.75517   1.27914  -0.36688 
 H                    -1.48127   1.613     0.45938 
 H                    -0.41909  -2.29198  -0.99241 
 H                     1.46806  -1.81166   0.24978 
 H                     0.28067   2.17439  -0.88274 
 H                     2.63917   2.85249  -0.9367 
 H                    -5.47963  -0.65151  -0.16416 
 H                    -5.11492  -2.18606  -0.72092 
 H                     5.19415  -2.19788   1.61201 
 H                     4.75732  -0.50109   1.9656 
 H                     3.54117  -1.79766   2.1618 
 H                     5.37535   0.49301  -0.53003 
 H                     4.98646   2.06236  -0.96767 
 O                    -4.13988   1.05301   0.56234 
 C                    -3.84772   2.40578   0.89528 
 H                    -2.78654  -2.96378  -0.90984 
 H                    -4.80621   2.87019   1.13221 
 H                    -3.1875    2.4686    1.76899 
 H                    -3.38367   2.93306   0.0527 
 
                          Input orientation:                          
 ---------------------------------------------------------------------
 Center     Atomic      Atomic             Coordinates (Angstroms)
 Number     Number       Type             X           Y           Z
 ---------------------------------------------------------------------
      1          6           0       -1.765252    0.616279    0.142487
      2          6           0       -0.760917   -0.287190   -0.267593
      3          6           0       -3.104019    0.239820    0.175358
      4          6           0       -3.498881   -1.068028   -0.199915
      5          6           0       -1.158350   -1.578093   -0.641116
      6          6           0       -2.501238   -1.959002   -0.606344
      7          6           0        0.662937    0.128425   -0.303139
      8          6           0        1.696112   -0.784453   -0.020194
      9          6           0        1.042555    1.443353   -0.627078
     10          6           0        2.380218    1.830451   -0.669483
     11          6           0        3.031737   -0.403455   -0.061187
     12          6           0        3.407314    0.917036   -0.385634
     13          7           0       -4.843186   -1.437662   -0.093061
     14          8           0        4.034555   -1.331873    0.181102
     15          6           0        4.394693   -1.455071    1.564244
     16          7           0        4.755173    1.279135   -0.366879
     17          1           0       -1.481273    1.612999    0.459381
     18          1           0       -0.419087   -2.291983   -0.992409
     19          1           0        1.468059   -1.811656    0.249775
     20          1           0        0.280673    2.174389   -0.882739
     21          1           0        2.639171    2.852485   -0.936703
     22          1           0       -5.479632   -0.651505   -0.164159
     23          1           0       -5.114916   -2.186062   -0.720920
     24          1           0        5.194151   -2.197875    1.612013
     25          1           0        4.757316   -0.501086    1.965597
     26          1           0        3.541169   -1.797660    2.161800
     27          1           0        5.375349    0.493011   -0.530025
     28          1           0        4.986460    2.062358   -0.967673
     29          8           0       -4.139878    1.053011    0.562335
     30          6           0       -3.847720    2.405778    0.895275
     31          1           0       -2.786535   -2.963781   -0.909837
     32          1           0       -4.806205    2.870190    1.132212
     33          1           0       -3.187496    2.468595    1.768990
     34          1           0       -3.383671    2.933056    0.052699
 ---------------------------------------------------------------------
                    Distance matrix (angstroms):
                    1          2          3          4          5
     1  C    0.000000
     2  C    1.411776   0.000000
     3  C    1.391078   2.442145   0.000000
     4  C    2.441229   2.847935   1.416761   0.000000
     5  C    2.407827   1.401393   2.785151   2.435757   0.000000
     6  C    2.781096   2.436888   2.410233   1.397967   1.396298
     7  C    2.516483   1.483698   3.798858   4.331614   2.518634
     8  C    3.737587   2.519021   4.912091   5.205830   3.027105
     9  C    3.026559   2.525177   4.391637   5.207124   3.738090
    10  C    4.395274   3.809547   5.772410   6.571566   4.913292
    11  C    4.908405   3.800045   6.173918   6.565811   4.390094
    12  C    5.208148   4.340305   6.570448   7.188220   5.209244
    13  N    3.707807   4.244875   2.431192   1.398286   3.728016
    14  O    6.118378   4.928412   7.309548   7.547678   5.263357
    15  C    6.652579   5.594630   7.812320   8.097566   5.976206
    16  N    6.573794   5.735022   7.946137   8.582917   6.573333
    17  H    1.083751   2.158268   2.144666   3.419550   3.390935
    18  H    3.399726   2.159028   3.870732   3.407528   1.086073
    19  H    4.044834   2.749545   5.011785   5.042390   2.783211
    20  H    2.768502   2.742751   4.039587   5.026385   4.026200
    21  H    5.056106   4.676095   6.406788   7.320448   5.842821
    22  H    3.936741   4.733888   2.559935   2.024387   4.445169
    23  H    4.451835   4.771638   3.275962   2.032982   4.003799
    24  H    7.649331   6.530427   8.767323   8.951449   6.768677
    25  H    6.864119   5.956827   8.096572   8.554277   6.553625
    26  H    6.169508   5.166373   7.228817   7.461392   5.476315
    27  H    7.173259   6.191231   8.512423   9.016528   6.855001
    28  H    6.993512   6.248426   8.371620   9.076882   7.149700
    29  O    2.450685   3.728578   1.372601   2.343226   4.154577
    30  C    2.847046   4.258250   2.400572   3.659024   5.046230
    31  H    3.868751   3.417564   3.397279   2.145998   2.154838
    32  H    3.912425   5.319103   3.275951   4.358121   6.019864
    33  H    2.845938   4.198846   2.741180   4.059711   5.128521
    34  H    2.827507   4.165502   2.710493   4.010706   5.077785
                    6          7          8          9         10
     6  C    0.000000
     7  C    3.802800   0.000000
     8  C    4.397827   1.407428   0.000000
     9  C    4.912730   1.406443   2.399701   0.000000
    10  C    6.180012   2.445435   2.779802   1.393193   0.000000
    11  C    5.773278   2.439805   1.389509   2.772684   2.405169
    12  C    6.575051   2.856627   2.440660   2.434623   1.403504
    13  N    2.453564   5.728364   6.572245   6.574752   7.949238
    14  O    6.612863   3.706045   2.410084   4.160180   3.668872
    15  C    7.247018   4.463248   3.200392   4.943641   4.454470
    16  N    7.949741   4.251422   3.706270   3.725346   2.456813
    17  H    3.864620   2.717174   4.009182   2.752977   4.028986
    18  H    2.143659   2.739388   2.773430   4.027729   4.993481
    19  H    4.063246   2.172061   1.086295   3.397795   3.865490
    20  H    4.990024   2.160563   3.391489   1.086389   2.138191
    21  H    7.048642   3.424530   3.867385   2.151907   1.087666
    22  H    3.282668   6.193445   7.178419   6.865978   8.257887
    23  H    2.626023   6.238187   6.988965   7.148140   8.503650
    24  H    8.012314   5.441634   4.110735   5.958844   5.417643
    25  H    7.837538   4.723070   3.659868   4.929732   4.246211
    26  H    6.648258   4.250876   3.031818   4.952280   4.746279
    27  H    8.249777   4.731937   3.927929   4.436854   3.283139
    28  H    8.506910   4.782735   4.452914   4.006689   2.633476
    29  O    3.622592   4.966985   6.146088   5.331480   6.680826
    30  C    4.808241   5.193126   6.461403   5.211392   6.447223
    31  H    1.087696   4.672117   5.063108   5.845059   7.052501
    32  H    5.626415   6.284029   7.547488   6.272078   7.481433
    33  H    5.071171   4.959430   6.134585   4.968460   6.111695
    34  H    5.014505   4.936356   6.295187   4.719406   5.912673
                   11         12         13         14         15
    11  C    0.000000
    12  C    1.410681   0.000000
    13  N    7.942607   8.584926   0.000000
    14  O    1.387915   2.402543   8.882603   0.000000
    15  C    2.367609   3.225497   9.385381   1.434559   0.000000
    16  N    2.427919   1.395776   9.979201   2.763501   3.366759
    17  H    4.970346   5.009660   4.573203   6.258919   6.720175
    18  H    4.042511   5.030638   4.594708   4.704664   5.514470
    19  H    2.127162   3.407376   6.331605   2.611859   3.228029
    20  H    3.858572   3.406455   6.318579   5.245690   6.007151
    21  H    3.394375   2.153992   8.666185   4.550323   5.281253
    22  H    8.515605   9.027025   1.013983   9.544729  10.056609
    23  H    8.365458   9.075794   1.013976   9.233423   9.807598
    24  H    3.270409   4.109264  10.209473   2.035222   1.092324
    25  H    2.663646   3.059716   9.863310   2.096906   1.096662
    26  H    2.673013   3.725173   8.689730   2.093693   1.096788
    27  H    2.552641   2.018368  10.408501   2.373527   3.023685
    28  H    3.274583   2.035739  10.470770   3.707642   4.374140
    29  O    7.344531   7.607709   2.669764   8.523753   8.951715
    30  C    7.492232   7.516156   4.091429   8.752733   9.126393
    31  H    6.413093   7.327980   2.688117   7.097925   7.743857
    32  H    8.577546   8.577911   4.478867   9.834683  10.176004
    33  H    7.090633   7.109238   4.633291   8.314022   8.539711
    34  H    7.232063   7.097461   4.610272   8.557814   9.057780
                   16         17         18         19         20
    16  N    0.000000
    17  H    6.299796   0.000000
    18  H    6.318001   4.299397   0.000000
    19  H    4.553940   4.524462   2.309774   0.000000
    20  H    4.592248   2.284929   4.522186   4.310572   0.000000
    21  H    2.697702   4.523653   5.985115   4.953125   2.454636
    22  H   10.417279   4.637203   5.383891   7.056040   6.456249
    23  H   10.466690   5.387888   4.704863   6.664682   6.939171
    24  H    4.024713   7.772555   6.188725   3.986053   7.034397
    25  H    2.934218   6.757073   6.225131   3.934571   5.942349
    26  H    4.163495   6.305216   5.086946   2.820252   5.973042
    27  H    1.014508   7.017590   6.445578   4.602879   5.376538
    28  H    1.013847   6.638522   6.941242   5.373017   4.707887
    29  O    8.946312   2.718891   5.239322   6.304995   4.784036
    30  C    8.767675   2.533490   6.114559   6.816225   4.500945
    31  H    8.670323   4.952311   2.462304   4.557813   5.984086
    32  H    9.808093   3.617790   7.099919   7.878119   5.515478
    33  H    8.310400   2.314804   6.160561   6.504057   4.375662
    34  H    8.315785   2.350970   6.097708   6.788992   3.857206
                   21         22         23         24         25
    21  H    0.000000
    22  H    8.876358   0.000000
    23  H    9.249832   1.672682   0.000000
    24  H    6.207255  10.930494  10.569748   0.000000
    25  H    4.914908  10.457227  10.369064   1.787439   0.000000
    26  H    5.660227   9.386086   9.131743   1.787397   1.788467
    27  H    3.635818  10.921281  10.828644   3.444129   2.756506
    28  H    2.476898  10.842037  10.961193   4.984727   3.902285
    29  O    7.172219   2.286506   3.617877   9.939526   9.140264
    30  C    6.755401   3.623881   5.030195  10.171665   9.145605
    31  H    7.954116   3.627041   2.462092   8.404623   8.440538
    32  H    7.727506   3.812665   5.393986  11.221524  10.174525
    33  H    6.435697   4.327352   5.619647   9.594404   8.483967
    34  H    6.104100   4.158023   5.459035  10.116172   9.040364
                   26         27         28         29         30
    26  H    0.000000
    27  H    3.982124   0.000000
    28  H    5.175153   1.674999   0.000000
    29  O    8.347640   9.594081   9.308585   0.000000
    30  C    8.594688   9.526550   9.035001   1.423441   0.000000
    31  H    7.129841   8.871867   9.256612   4.487031   5.763394
    32  H    9.619123  10.586692  10.047806   2.017645   1.091105
    33  H    7.976852   9.083541   8.629479   2.089719   1.096914
    34  H    8.647623   9.111192   8.476931   2.089533   1.096949
                   31         32         33         34
    31  H    0.000000
    32  H    6.502634   0.000000
    33  H    6.070222   1.785212   0.000000
    34  H    6.004643   1.786870   1.788816   0.000000
 Stoichiometry    C14H16N2O2
 Framework group  C1[X(C14H16N2O2)]
 Deg. of freedom    96
 Full point group                 C1      NOp   1
 Largest Abelian subgroup         C1      NOp   1
 Largest concise Abelian subgroup C1      NOp   1
                         Standard orientation:                         
 ---------------------------------------------------------------------
 Center     Atomic      Atomic             Coordinates (Angstroms)
 Number     Number       Type             X           Y           Z
 ---------------------------------------------------------------------
      1          6           0       -1.765252    0.616279    0.142487
      2          6           0       -0.760917   -0.287190   -0.267593
      3          6           0       -3.104019    0.239820    0.175358
      4          6           0       -3.498881   -1.068028   -0.199915
      5          6           0       -1.158350   -1.578093   -0.641116
      6          6           0       -2.501238   -1.959002   -0.606344
      7          6           0        0.662937    0.128425   -0.303139
      8          6           0        1.696112   -0.784453   -0.020194
      9          6           0        1.042555    1.443353   -0.627078
     10          6           0        2.380218    1.830451   -0.669483
     11          6           0        3.031737   -0.403455   -0.061187
     12          6           0        3.407314    0.917036   -0.385634
     13          7           0       -4.843186   -1.437662   -0.093061
     14          8           0        4.034555   -1.331873    0.181102
     15          6           0        4.394693   -1.455071    1.564244
     16          7           0        4.755173    1.279135   -0.366879
     17          1           0       -1.481273    1.612999    0.459381
     18          1           0       -0.419087   -2.291983   -0.992409
     19          1           0        1.468059   -1.811656    0.249775
     20          1           0        0.280673    2.174389   -0.882739
     21          1           0        2.639171    2.852485   -0.936703
     22          1           0       -5.479632   -0.651505   -0.164159
     23          1           0       -5.114916   -2.186062   -0.720920
     24          1           0        5.194151   -2.197875    1.612013
     25          1           0        4.757316   -0.501086    1.965597
     26          1           0        3.541169   -1.797660    2.161800
     27          1           0        5.375349    0.493011   -0.530025
     28          1           0        4.986460    2.062358   -0.967673
     29          8           0       -4.139878    1.053011    0.562335
     30          6           0       -3.847720    2.405778    0.895275
     31          1           0       -2.786535   -2.963781   -0.909837
     32          1           0       -4.806205    2.870190    1.132212
     33          1           0       -3.187496    2.468595    1.768990
     34          1           0       -3.383671    2.933056    0.052699
 ---------------------------------------------------------------------
 Rotational constants (GHZ):           0.9363105           0.1880408           0.1660626
 Standard basis: 6-31G(d) (6D, 7F)
 There are   302 symmetry adapted cartesian basis functions of A   symmetry.
 There are   302 symmetry adapted basis functions of A   symmetry.
   302 basis functions,   568 primitive gaussians,   302 cartesian basis functions
    65 alpha electrons       65 beta electrons
       nuclear repulsion energy      1240.9971939275 Hartrees.
 NAtoms=   34 NActive=   34 NUniq=   34 SFac= 1.00D+00 NAtFMM=   60 NAOKFM=F Big=F
 Integral buffers will be    131072 words long.
 Raffenetti 1 integral format.
 Two-electron integral symmetry is turned on.
 One-electron integrals computed using PRISM.
 NBasis=   302 RedAO= T EigKep=  3.42D-04  NBF=   302
 NBsUse=   302 1.00D-06 EigRej= -1.00D+00 NBFU=   302
 SCF N**3 symmetry information disabled.
 ExpMin= 1.61D-01 ExpMax= 5.48D+03 ExpMxC= 8.25D+02 IAcc=3 IRadAn=         5 AccDes= 0.00D+00
 Harris functional with IExCor=  205 and IRadAn=       5 diagonalized for initial guess.
 HarFok:  IExCor=  205 AccDes= 0.00D+00 IRadAn=         5 IDoV= 1 UseB2=F ITyADJ=14
 ICtDFT=  3500011 ScaDFX=  1.000000  1.000000  1.000000  1.000000
 FoFCou: FMM=F IPFlag=           0 FMFlag=      100000 FMFlg1=           0
         NFxFlg=           0 DoJE=T BraDBF=F KetDBF=T FulRan=T
         wScrn=  0.000000 ICntrl=       500 IOpCl=  0 I1Cent=   200000004 NGrid=           0
         NMat0=    1 NMatS0=      1 NMatT0=    0 NMatD0=    1 NMtDS0=    0 NMtDT0=    0
 Petite list used in FoFCou.
 Requested convergence on RMS density matrix=1.00D-08 within 128 cycles.
 Requested convergence on MAX density matrix=1.00D-06.
 Requested convergence on             energy=1.00D-06.
 No special actions if energy rises.
 Integral accuracy reduced to 1.0D-05 until final iterations.
 Initial convergence to 1.0D-05 achieved.  Increase integral accuracy.
 SCF Done:  E(RHF) =  -798.060771768     A.U. after   15 cycles
            NFock= 15  Conv=0.78D-08     -V/T= 2.0024
 SCF density gives NOpUse=  1 NOpAll=  1.

 **********************************************************************

            Population analysis using the SCF Density.

 **********************************************************************

 Orbital symmetries:
 BldTbl:  Degeneracy threshold= 1.00D-02
       Occupied  (A) (A) (A) (A) (A) (A) (A) (A) (A) (A) (A) (A)
                 (A) (A) (A) (A) (A) (A) (A) (A) (A) (A) (A) (A)
                 (A) (A) (A) (A) (A) (A) (A) (A) (A) (A) (A) (A)
                 (A) (A) (A) (A) (A) (A) (A) (A) (A) (A) (A) (A)
                 (A) (A) (A) (A) (A) (A) (A) (A) (A) (A) (A) (A)
                 (A) (A) (A) (A) (A)
       Virtual   (A) (A) (A) (A) (A) (A) (A) (A) (A) (A) (A) (A)
                 (A) (A) (A) (A) (A) (A) (A) (A) (A) (A) (A) (A)
                 (A) (A) (A) (A) (A) (A) (A) (A) (A) (A) (A) (A)
                 (A) (A) (A) (A) (A) (A) (A) (A) (A) (A) (A) (A)
                 (A) (A) (A) (A) (A) (A) (A) (A) (A) (A) (A) (A)
                 (A) (A) (A) (A) (A) (A) (A) (A) (A) (A) (A) (A)
                 (A) (A) (A) (A) (A) (A) (A) (A) (A) (A) (A) (A)
                 (A) (A) (A) (A) (A) (A) (A) (A) (A) (A) (A) (A)
                 (A) (A) (A) (A) (A) (A) (A) (A) (A) (A) (A) (A)
                 (A) (A) (A) (A) (A) (A) (A) (A) (A) (A) (A) (A)
                 (A) (A) (A) (A) (A) (A) (A) (A) (A) (A) (A) (A)
                 (A) (A) (A) (A) (A) (A) (A) (A) (A) (A) (A) (A)
                 (A) (A) (A) (A) (A) (A) (A) (A) (A) (A) (A) (A)
                 (A) (A) (A) (A) (A) (A) (A) (A) (A) (A) (A) (A)
                 (A) (A) (A) (A) (A) (A) (A) (A) (A) (A) (A) (A)
                 (A) (A) (A) (A) (A) (A) (A) (A) (A) (A) (A) (A)
                 (A) (A) (A) (A) (A) (A) (A) (A) (A) (A) (A) (A)
                 (A) (A) (A) (A) (A) (A) (A) (A) (A) (A) (A) (A)
                 (A) (A) (A) (A) (A) (A) (A) (A) (A) (A) (A) (A)
                 (A) (A) (A) (A) (A) (A) (A) (A) (A)
 The electronic state is 1-A.
 Alpha  occ. eigenvalues --  -20.58755 -20.57439 -15.56342 -15.55588 -11.28873
 Alpha  occ. eigenvalues --  -11.28680 -11.27824 -11.27684 -11.27273 -11.26778
 Alpha  occ. eigenvalues --  -11.23355 -11.23279 -11.23094 -11.22923 -11.22809
 Alpha  occ. eigenvalues --  -11.22720 -11.22432 -11.22310  -1.40110  -1.38427
 Alpha  occ. eigenvalues --   -1.21329  -1.20748  -1.14125  -1.10554  -1.01764
 Alpha  occ. eigenvalues --   -1.00966  -1.00288  -0.96383  -0.93075  -0.92168
 Alpha  occ. eigenvalues --   -0.83821  -0.82822  -0.80126  -0.77719  -0.71439
 Alpha  occ. eigenvalues --   -0.70098  -0.68603  -0.68298  -0.67270  -0.65905
 Alpha  occ. eigenvalues --   -0.64939  -0.62573  -0.62104  -0.61965  -0.60843
 Alpha  occ. eigenvalues --   -0.59720  -0.59179  -0.58498  -0.56590  -0.55460
 Alpha  occ. eigenvalues --   -0.53760  -0.52809  -0.51512  -0.51079  -0.50016
 Alpha  occ. eigenvalues --   -0.48433  -0.47928  -0.47300  -0.45822  -0.43873
 Alpha  occ. eigenvalues --   -0.42212  -0.32641  -0.32127  -0.30412  -0.24841
 Alpha virt. eigenvalues --    0.12580   0.14570   0.15955   0.20616   0.23066
 Alpha virt. eigenvalues --    0.23659   0.24250   0.25937   0.26279   0.26832
 Alpha virt. eigenvalues --    0.29440   0.30169   0.30678   0.31442   0.31819
 Alpha virt. eigenvalues --    0.31972   0.32539   0.33111   0.33378   0.34047
 Alpha virt. eigenvalues --    0.35655   0.36121   0.39922   0.40680   0.43267
 Alpha virt. eigenvalues --    0.44312   0.45612   0.48055   0.50005   0.50955
 Alpha virt. eigenvalues --    0.52305   0.53604   0.56036   0.57346   0.57927
 Alpha virt. eigenvalues --    0.62681   0.64710   0.67826   0.70244   0.71266
 Alpha virt. eigenvalues --    0.73412   0.74487   0.74872   0.75060   0.76172
 Alpha virt. eigenvalues --    0.76412   0.76960   0.77842   0.78418   0.79223
 Alpha virt. eigenvalues --    0.80721   0.81306   0.82044   0.82551   0.83630
 Alpha virt. eigenvalues --    0.84558   0.85607   0.86199   0.87591   0.88593
 Alpha virt. eigenvalues --    0.89667   0.90773   0.90959   0.92574   0.94560
 Alpha virt. eigenvalues --    0.94765   0.96864   0.97206   0.98466   0.99184
 Alpha virt. eigenvalues --    1.01248   1.03302   1.03862   1.06795   1.06946
 Alpha virt. eigenvalues --    1.07676   1.08714   1.10917   1.11182   1.12378
 Alpha virt. eigenvalues --    1.12652   1.13097   1.13373   1.14098   1.14930
 Alpha virt. eigenvalues --    1.15427   1.16318   1.18426   1.18983   1.19348
 Alpha virt. eigenvalues --    1.19802   1.20360   1.21226   1.22062   1.22443
 Alpha virt. eigenvalues --    1.24231   1.25273   1.25841   1.27387   1.28354
 Alpha virt. eigenvalues --    1.28922   1.31020   1.31419   1.33119   1.35069
 Alpha virt. eigenvalues --    1.36684   1.37162   1.38399   1.39616   1.41578
 Alpha virt. eigenvalues --    1.43280   1.43807   1.46820   1.48997   1.49750
 Alpha virt. eigenvalues --    1.52728   1.53267   1.53804   1.58601   1.60920
 Alpha virt. eigenvalues --    1.61130   1.62732   1.64429   1.67389   1.68948
 Alpha virt. eigenvalues --    1.70021   1.71670   1.72200   1.75083   1.76419
 Alpha virt. eigenvalues --    1.78003   1.78495   1.79703   1.80638   1.82164
 Alpha virt. eigenvalues --    1.85672   1.86456   1.93551   1.96964   1.97288
 Alpha virt. eigenvalues --    2.05289   2.06910   2.07380   2.08211   2.09443
 Alpha virt. eigenvalues --    2.10639   2.12933   2.15161   2.17634   2.18399
 Alpha virt. eigenvalues --    2.19191   2.20378   2.20943   2.24882   2.25651
 Alpha virt. eigenvalues --    2.26260   2.27164   2.30983   2.32146   2.33341
 Alpha virt. eigenvalues --    2.36422   2.37149   2.37783   2.38820   2.40017
 Alpha virt. eigenvalues --    2.40985   2.42869   2.44005   2.45583   2.46998
 Alpha virt. eigenvalues --    2.48559   2.49865   2.50449   2.52147   2.53673
 Alpha virt. eigenvalues --    2.55255   2.57107   2.60205   2.60479   2.61831
 Alpha virt. eigenvalues --    2.62658   2.63288   2.64031   2.66293   2.73378
 Alpha virt. eigenvalues --    2.73707   2.74956   2.76834   2.77720   2.80293
 Alpha virt. eigenvalues --    2.81254   2.82236   2.86707   2.90400   2.91600
 Alpha virt. eigenvalues --    2.92189   2.93512   2.95208   2.99176   3.01582
 Alpha virt. eigenvalues --    3.02576   3.04123   3.06212   3.09565   3.13248
 Alpha virt. eigenvalues --    3.16038   3.17650   3.21434   3.21516   3.24807
 Alpha virt. eigenvalues --    3.25793   3.34430   3.37681   3.39902   3.43072
 Alpha virt. eigenvalues --    3.55884   3.65944   3.76577   3.86867   4.26051
 Alpha virt. eigenvalues --    4.29019   4.50878   4.52736   4.53406   4.53894
 Alpha virt. eigenvalues --    4.55678   4.60437   4.64153   4.64953   4.71220
 Alpha virt. eigenvalues --    4.75834   4.77816   4.83519   4.90190   5.00372
 Alpha virt. eigenvalues --    5.23270   5.30539
          Condensed to atoms (all electrons):
               1          2          3          4          5          6
     1  C    5.122659   0.505570   0.533185  -0.052149  -0.050968  -0.039832
     2  C    0.505570   4.753774  -0.029086  -0.021806   0.573038  -0.042210
     3  C    0.533185  -0.029086   4.479331   0.573277  -0.030324  -0.036866
     4  C   -0.052149  -0.021806   0.573277   4.577377  -0.042809   0.576548
     5  C   -0.050968   0.573038  -0.030324  -0.042809   4.940317   0.521407
     6  C   -0.039832  -0.042210  -0.036866   0.576548   0.521407   4.973285
     7  C   -0.038020   0.372519   0.001786   0.000486  -0.042292   0.003717
     8  C    0.003173  -0.035766  -0.000064  -0.000004  -0.009475   0.000181
     9  C   -0.010361  -0.042698   0.000266   0.000001   0.003190  -0.000078
    10  C    0.000155   0.003588  -0.000003  -0.000000  -0.000073   0.000000
    11  C   -0.000060   0.002225   0.000001  -0.000000   0.000265  -0.000004
    12  C   -0.000003   0.000432  -0.000000  -0.000000  -0.000004   0.000000
    13  N    0.004086  -0.000019  -0.066085   0.297972   0.002917  -0.065836
    14  O    0.000000  -0.000066   0.000000  -0.000000   0.000001  -0.000000
    15  C    0.000000   0.000002   0.000000   0.000000  -0.000000  -0.000000
    16  N    0.000000  -0.000000  -0.000000  -0.000000   0.000000   0.000000
    17  H    0.370666  -0.025339  -0.028892   0.001346   0.002884   0.000244
    18  H    0.003166  -0.028933   0.000391   0.001408   0.375419  -0.028364
    19  H   -0.000056  -0.001513  -0.000004  -0.000008   0.003120   0.000043
    20  H    0.002998  -0.001360   0.000042  -0.000001  -0.000065  -0.000010
    21  H   -0.000001  -0.000107   0.000000  -0.000000   0.000001  -0.000000
    22  H    0.000215  -0.000013  -0.009807  -0.027327  -0.000084   0.003580
    23  H   -0.000073  -0.000001   0.004377  -0.031341   0.000024  -0.005303
    24  H   -0.000000  -0.000000  -0.000000  -0.000000   0.000000  -0.000000
    25  H   -0.000000  -0.000000   0.000000  -0.000000   0.000000  -0.000000
    26  H   -0.000000   0.000005   0.000000   0.000000  -0.000001   0.000000
    27  H   -0.000000   0.000000  -0.000000  -0.000000   0.000000   0.000000
    28  H   -0.000000  -0.000000  -0.000000  -0.000000   0.000000   0.000000
    29  O   -0.053813   0.003188   0.239483  -0.056098   0.000094   0.002484
    30  C   -0.007571  -0.000482  -0.042290   0.002972   0.000011  -0.000092
    31  H    0.000233   0.001550   0.002353  -0.033569  -0.023680   0.376739
    32  H    0.000330   0.000017   0.002017   0.000095  -0.000000   0.000004
    33  H    0.000227  -0.000291  -0.000991  -0.000139  -0.000002  -0.000005
    34  H    0.002178  -0.000233  -0.001318  -0.000287  -0.000007  -0.000013
               7          8          9         10         11         12
     1  C   -0.038020   0.003173  -0.010361   0.000155  -0.000060  -0.000003
     2  C    0.372519  -0.035766  -0.042698   0.003588   0.002225   0.000432
     3  C    0.001786  -0.000064   0.000266  -0.000003   0.000001  -0.000000
     4  C    0.000486  -0.000004   0.000001  -0.000000  -0.000000  -0.000000
     5  C   -0.042292  -0.009475   0.003190  -0.000073   0.000265  -0.000004
     6  C    0.003717   0.000181  -0.000078   0.000000  -0.000004   0.000000
     7  C    4.789906   0.516443   0.557861  -0.042229  -0.043271  -0.020213
     8  C    0.516443   5.023856  -0.047799  -0.037888   0.560944  -0.056375
     9  C    0.557861  -0.047799   4.932426   0.530184  -0.031249  -0.040633
    10  C   -0.042229  -0.037888   0.530184   4.997298  -0.034010   0.543510
    11  C   -0.043271   0.560944  -0.031249  -0.034010   4.571479   0.558645
    12  C   -0.020213  -0.056375  -0.040633   0.543510   0.558645   4.607596
    13  N   -0.000001   0.000000   0.000000   0.000000  -0.000000  -0.000000
    14  O    0.003119  -0.046204   0.000021   0.003722   0.209331  -0.058097
    15  C   -0.000156  -0.003785   0.000037  -0.000194  -0.042317  -0.003515
    16  N    0.000004   0.003734   0.002975  -0.064618  -0.067128   0.298827
    17  H   -0.001214  -0.000096   0.003581   0.000051  -0.000001  -0.000013
    18  H   -0.001812   0.002730  -0.000056  -0.000009   0.000044  -0.000001
    19  H   -0.027160   0.368533   0.003032   0.000039  -0.027949   0.002837
    20  H   -0.030225   0.002756   0.375231  -0.028202   0.000458   0.001413
    21  H    0.001357   0.000297  -0.023318   0.375432   0.001721  -0.031256
    22  H    0.000000  -0.000000   0.000000   0.000000  -0.000000  -0.000000
    23  H   -0.000000  -0.000000   0.000000   0.000000  -0.000000  -0.000000
    24  H    0.000003  -0.000111  -0.000000   0.000004   0.004850  -0.000152
    25  H    0.000057   0.000727  -0.000001  -0.000297  -0.003203   0.001777
    26  H   -0.000335   0.001781  -0.000012   0.000032  -0.001018   0.000384
    27  H   -0.000013   0.000209  -0.000082   0.003828  -0.010209  -0.029281
    28  H   -0.000004  -0.000067   0.000060  -0.004864   0.003922  -0.031871
    29  O   -0.000053   0.000000   0.000003   0.000000   0.000000  -0.000000
    30  C    0.000006   0.000000  -0.000020  -0.000000  -0.000000   0.000000
    31  H   -0.000107  -0.000002   0.000001  -0.000000   0.000000  -0.000000
    32  H   -0.000000  -0.000000   0.000000   0.000000   0.000000  -0.000000
    33  H    0.000000  -0.000000   0.000001  -0.000000  -0.000000  -0.000000
    34  H    0.000007   0.000000  -0.000022  -0.000000  -0.000000   0.000000
              13         14         15         16         17         18
     1  C    0.004086   0.000000   0.000000   0.000000   0.370666   0.003166
     2  C   -0.000019  -0.000066   0.000002  -0.000000  -0.025339  -0.028933
     3  C   -0.066085   0.000000   0.000000  -0.000000  -0.028892   0.000391
     4  C    0.297972  -0.000000   0.000000  -0.000000   0.001346   0.001408
     5  C    0.002917   0.000001  -0.000000   0.000000   0.002884   0.375419
     6  C   -0.065836  -0.000000  -0.000000   0.000000   0.000244  -0.028364
     7  C   -0.000001   0.003119  -0.000156   0.000004  -0.001214  -0.001812
     8  C    0.000000  -0.046204  -0.003785   0.003734  -0.000096   0.002730
     9  C    0.000000   0.000021   0.000037   0.002975   0.003581  -0.000056
    10  C    0.000000   0.003722  -0.000194  -0.064618   0.000051  -0.000009
    11  C   -0.000000   0.209331  -0.042317  -0.067128  -0.000001   0.000044
    12  C   -0.000000  -0.058097  -0.003515   0.298827  -0.000013  -0.000001
    13  N    7.069313  -0.000000   0.000000  -0.000000  -0.000065  -0.000066
    14  O   -0.000000   8.482350   0.199260  -0.008724   0.000000  -0.000003
    15  C    0.000000   0.199260   4.854208   0.000144   0.000000   0.000001
    16  N   -0.000000  -0.008724   0.000144   7.079783  -0.000000   0.000000
    17  H   -0.000065   0.000000   0.000000  -0.000000   0.465301  -0.000117
    18  H   -0.000066  -0.000003   0.000001   0.000000  -0.000117   0.471098
    19  H   -0.000000  -0.000252   0.000351  -0.000066   0.000000   0.000723
    20  H    0.000000   0.000001  -0.000000  -0.000070   0.000680   0.000003
    21  H   -0.000000  -0.000042   0.000001  -0.001967   0.000004   0.000000
    22  H    0.326317   0.000000  -0.000000  -0.000000  -0.000004   0.000002
    23  H    0.330403   0.000000   0.000000  -0.000000   0.000002  -0.000005
    24  H   -0.000000  -0.032843   0.394123  -0.000007  -0.000000  -0.000000
    25  H   -0.000000  -0.035423   0.389897   0.001332  -0.000000  -0.000000
    26  H   -0.000000  -0.036471   0.388370   0.000028  -0.000000  -0.000001
    27  H   -0.000000   0.012605  -0.001787   0.325339  -0.000000   0.000000
    28  H   -0.000000   0.000080  -0.000021   0.332466  -0.000000   0.000000
    29  O   -0.008036   0.000000  -0.000000  -0.000000  -0.004236   0.000001
    30  C    0.000046  -0.000000  -0.000000   0.000000   0.001859   0.000000
    31  H   -0.002282   0.000000  -0.000000  -0.000000   0.000010  -0.001456
    32  H   -0.000005   0.000000  -0.000000  -0.000000   0.000076  -0.000000
    33  H   -0.000014  -0.000000  -0.000000  -0.000000   0.000224   0.000000
    34  H    0.000004  -0.000000  -0.000000   0.000000  -0.000823   0.000000
              19         20         21         22         23         24
     1  C   -0.000056   0.002998  -0.000001   0.000215  -0.000073  -0.000000
     2  C   -0.001513  -0.001360  -0.000107  -0.000013  -0.000001  -0.000000
     3  C   -0.000004   0.000042   0.000000  -0.009807   0.004377  -0.000000
     4  C   -0.000008  -0.000001  -0.000000  -0.027327  -0.031341  -0.000000
     5  C    0.003120  -0.000065   0.000001  -0.000084   0.000024   0.000000
     6  C    0.000043  -0.000010  -0.000000   0.003580  -0.005303  -0.000000
     7  C   -0.027160  -0.030225   0.001357   0.000000  -0.000000   0.000003
     8  C    0.368533   0.002756   0.000297  -0.000000  -0.000000  -0.000111
     9  C    0.003032   0.375231  -0.023318   0.000000   0.000000  -0.000000
    10  C    0.000039  -0.028202   0.375432   0.000000   0.000000   0.000004
    11  C   -0.027949   0.000458   0.001721  -0.000000  -0.000000   0.004850
    12  C    0.002837   0.001413  -0.031256  -0.000000  -0.000000  -0.000152
    13  N   -0.000000   0.000000  -0.000000   0.326317   0.330403  -0.000000
    14  O   -0.000252   0.000001  -0.000042   0.000000   0.000000  -0.032843
    15  C    0.000351  -0.000000   0.000001  -0.000000   0.000000   0.394123
    16  N   -0.000066  -0.000070  -0.001967  -0.000000  -0.000000  -0.000007
    17  H    0.000000   0.000680   0.000004  -0.000004   0.000002  -0.000000
    18  H    0.000723   0.000003   0.000000   0.000002  -0.000005  -0.000000
    19  H    0.459439  -0.000109   0.000011  -0.000000  -0.000000  -0.000050
    20  H   -0.000109   0.476043  -0.001480   0.000000   0.000000   0.000000
    21  H    0.000011  -0.001480   0.480337  -0.000000  -0.000000  -0.000000
    22  H   -0.000000   0.000000  -0.000000   0.338770  -0.021626  -0.000000
    23  H   -0.000000   0.000000  -0.000000  -0.021626   0.367091  -0.000000
    24  H   -0.000050   0.000000  -0.000000  -0.000000  -0.000000   0.517358
    25  H    0.000101   0.000000   0.000005   0.000000   0.000000  -0.029373
    26  H    0.000098  -0.000000  -0.000000   0.000000   0.000000  -0.029004
    27  H   -0.000006   0.000002  -0.000097  -0.000000  -0.000000  -0.000035
    28  H    0.000002  -0.000005   0.002752  -0.000000  -0.000000   0.000000
    29  O    0.000000  -0.000002   0.000000   0.009776   0.000142   0.000000
    30  C    0.000000   0.000006  -0.000000  -0.000314   0.000003   0.000000
    31  H    0.000003   0.000000   0.000000  -0.000079   0.002876   0.000000
    32  H   -0.000000  -0.000000   0.000000  -0.000036  -0.000001   0.000000
    33  H   -0.000000  -0.000017   0.000000   0.000045   0.000000   0.000000
    34  H    0.000000   0.000099  -0.000000  -0.000014   0.000000  -0.000000
              25         26         27         28         29         30
     1  C   -0.000000  -0.000000  -0.000000  -0.000000  -0.053813  -0.007571
     2  C   -0.000000   0.000005   0.000000  -0.000000   0.003188  -0.000482
     3  C    0.000000   0.000000  -0.000000  -0.000000   0.239483  -0.042290
     4  C   -0.000000   0.000000  -0.000000  -0.000000  -0.056098   0.002972
     5  C    0.000000  -0.000001   0.000000   0.000000   0.000094   0.000011
     6  C   -0.000000   0.000000   0.000000   0.000000   0.002484  -0.000092
     7  C    0.000057  -0.000335  -0.000013  -0.000004  -0.000053   0.000006
     8  C    0.000727   0.001781   0.000209  -0.000067   0.000000   0.000000
     9  C   -0.000001  -0.000012  -0.000082   0.000060   0.000003  -0.000020
    10  C   -0.000297   0.000032   0.003828  -0.004864   0.000000  -0.000000
    11  C   -0.003203  -0.001018  -0.010209   0.003922   0.000000  -0.000000
    12  C    0.001777   0.000384  -0.029281  -0.031871  -0.000000   0.000000
    13  N   -0.000000  -0.000000  -0.000000  -0.000000  -0.008036   0.000046
    14  O   -0.035423  -0.036471   0.012605   0.000080   0.000000  -0.000000
    15  C    0.389897   0.388370  -0.001787  -0.000021  -0.000000  -0.000000
    16  N    0.001332   0.000028   0.325339   0.332466  -0.000000   0.000000
    17  H   -0.000000  -0.000000  -0.000000  -0.000000  -0.004236   0.001859
    18  H   -0.000000  -0.000001   0.000000   0.000000   0.000001   0.000000
    19  H    0.000101   0.000098  -0.000006   0.000002   0.000000   0.000000
    20  H    0.000000  -0.000000   0.000002  -0.000005  -0.000002   0.000006
    21  H    0.000005  -0.000000  -0.000097   0.002752   0.000000  -0.000000
    22  H    0.000000   0.000000  -0.000000  -0.000000   0.009776  -0.000314
    23  H    0.000000   0.000000  -0.000000  -0.000000   0.000142   0.000003
    24  H   -0.029373  -0.029004  -0.000035   0.000000   0.000000   0.000000
    25  H    0.540107  -0.037900  -0.001115   0.000018   0.000000   0.000000
    26  H   -0.037900   0.552894   0.000158   0.000000  -0.000000   0.000000
    27  H   -0.001115   0.000158   0.341280  -0.020863   0.000000   0.000000
    28  H    0.000018   0.000000  -0.020863   0.359482   0.000000   0.000000
    29  O    0.000000  -0.000000   0.000000   0.000000   8.461933   0.202168
    30  C    0.000000   0.000000   0.000000   0.000000   0.202168   4.847147
    31  H    0.000000   0.000000  -0.000000   0.000000  -0.000044   0.000002
    32  H    0.000000   0.000000   0.000000   0.000000  -0.032280   0.402234
    33  H    0.000000   0.000000   0.000000  -0.000000  -0.036804   0.389418
    34  H    0.000000  -0.000000   0.000000   0.000000  -0.037376   0.386940
              31         32         33         34
     1  C    0.000233   0.000330   0.000227   0.002178
     2  C    0.001550   0.000017  -0.000291  -0.000233
     3  C    0.002353   0.002017  -0.000991  -0.001318
     4  C   -0.033569   0.000095  -0.000139  -0.000287
     5  C   -0.023680  -0.000000  -0.000002  -0.000007
     6  C    0.376739   0.000004  -0.000005  -0.000013
     7  C   -0.000107  -0.000000   0.000000   0.000007
     8  C   -0.000002  -0.000000  -0.000000   0.000000
     9  C    0.000001   0.000000   0.000001  -0.000022
    10  C   -0.000000   0.000000  -0.000000  -0.000000
    11  C    0.000000   0.000000  -0.000000  -0.000000
    12  C   -0.000000  -0.000000  -0.000000   0.000000
    13  N   -0.002282  -0.000005  -0.000014   0.000004
    14  O    0.000000   0.000000  -0.000000  -0.000000
    15  C   -0.000000  -0.000000  -0.000000  -0.000000
    16  N   -0.000000  -0.000000  -0.000000   0.000000
    17  H    0.000010   0.000076   0.000224  -0.000823
    18  H   -0.001456  -0.000000   0.000000   0.000000
    19  H    0.000003  -0.000000  -0.000000   0.000000
    20  H    0.000000  -0.000000  -0.000017   0.000099
    21  H    0.000000   0.000000   0.000000  -0.000000
    22  H   -0.000079  -0.000036   0.000045  -0.000014
    23  H    0.002876  -0.000001   0.000000   0.000000
    24  H    0.000000   0.000000   0.000000  -0.000000
    25  H    0.000000   0.000000   0.000000   0.000000
    26  H    0.000000   0.000000   0.000000  -0.000000
    27  H   -0.000000   0.000000   0.000000   0.000000
    28  H    0.000000   0.000000  -0.000000   0.000000
    29  O   -0.000044  -0.032280  -0.036804  -0.037376
    30  C    0.000002   0.402234   0.389418   0.386940
    31  H    0.481090  -0.000000  -0.000000  -0.000000
    32  H   -0.000000   0.493496  -0.028117  -0.027739
    33  H   -0.000000  -0.028117   0.551677  -0.043072
    34  H   -0.000000  -0.027739  -0.043072   0.560263
 Mulliken charges:
               1
     1  C   -0.295935
     2  C    0.014016
     3  C    0.409220
     4  C    0.234058
     5  C   -0.222903
     6  C   -0.239621
     7  C   -0.000166
     8  C   -0.247730
     9  C   -0.212542
    10  C   -0.245456
    11  C    0.346533
    12  C    0.255991
    13  N   -0.888651
    14  O   -0.692366
    15  C   -0.174617
    16  N   -0.902051
    17  H    0.213872
    18  H    0.205838
    19  H    0.218839
    20  H    0.201813
    21  H    0.196352
    22  H    0.380600
    23  H    0.353431
    24  H    0.175238
    25  H    0.173294
    26  H    0.160991
    27  H    0.380067
    28  H    0.358912
    29  O   -0.690528
    30  C   -0.182043
    31  H    0.196361
    32  H    0.189909
    33  H    0.167859
    34  H    0.161413
 Sum of Mulliken charges =  -0.00000
 Mulliken charges with hydrogens summed into heavy atoms:
               1
     1  C   -0.082064
     2  C    0.014016
     3  C    0.409220
     4  C    0.234058
     5  C   -0.017065
     6  C   -0.043259
     7  C   -0.000166
     8  C   -0.028891
     9  C   -0.010729
    10  C   -0.049103
    11  C    0.346533
    12  C    0.255991
    13  N   -0.154620
    14  O   -0.692366
    15  C    0.334906
    16  N   -0.163072
    29  O   -0.690528
    30  C    0.337138
 DipInt: DoE/N= T F RetVal/Mat= T F Init=T NMatP=  1 IDeriv=0 Min/MaxMlt=  0  4
 Entering OneElI...
 OneElI was handed  4294731487 working-precision words.
 Multipole integrals L=0 to 4 MinM= 0 MaxM= 0.
 Requested accuracy = 0.1000D-12
 PrtBox:  NBox=     1 Levels=  1 BoxLen=   35.86 SMaxX=       20.51
          Shift=           10.355004            5.600734            1.875381
 Box      1 Number                   0 centers from      1 to    104:
 ShPair: Thresh= 1.00D-13 NBox=     1 BxSize= 3.59D+01 RnKept= 2.12D+01
         NSMCal=                 5460 NSMKep=                4150
 PrmmSu-InSpLW:  IPartL=    0 NPrtUS=    1 NPrtUL=    1 DoSpLW=F IThBeg=    0 IThEnd=    0 NThAct=    1.
 PrSmSu:  IncTry=   512 NBBP=           4150 NTPThr=   100 NPartT=    1 Incr=          41 LDynOK=F GPUOK=F.
 PrsmSu:  NPrtUS=   1 ThrOK=F IAlg=2 LenDen=           0 ISkipM=0 DoSpLW=F IThBeg=    0 IThEnd=    0.
 Prism:   IPart=     0 DynPar=F LinDyn=F Incr=          41.
 PRISM was handed  4294366307 working-precision words and  4150 shell-pairs
 IPart=  0 NShTot=        4150 NBatch=          68 AvBLen=        61.0
 PrsmSu-ThDecC:  IPartSL=    0    0 NPrtUSL=    1    1 IThBeg=    0 IThEnd=    0 CPU=   -1 GPU=   -1 NThAct=    1.
 PrSmSu:  NxtVal=             42.
 Electronic moments (au):
       -130.00000000          0.12841668          0.71840256         -0.29830908
      -5120.22545976       -999.96602293       -281.56058278         -1.45493306
          4.18952740         -0.15675268       -764.81079100       -451.50608945
       -290.36967452        964.17660934        304.11536917      -1969.47596405
       -505.66571120         64.94907987        -78.92204599       2110.74586072
    -323061.08739808     -16134.99404452      -2341.30136033       2208.91350794
      -2922.82585604       2070.12766962       -986.81809583      -1770.28900478
        456.89320541     -42929.49287960     -13352.44997842      -3037.98666829
       1593.60605917        851.88143906       2361.83292072
 Electronic spatial extent (au):  <R**2>=           6401.7521
 DipInt: DoE/N= F T RetVal/Mat= T F Init=T NMatP=  1 IDeriv=0 Min/MaxMlt=  0  4
 Nuclear    moments (au):
        130.00000000          0.00000000          0.00000000         -0.00000000
       5052.69349038        930.24216535        201.78840515          0.00000000
          0.00000088         -0.00003281        798.03614612        472.98791200
        309.58807883       -994.63394683       -276.61576169       1913.29988338
        526.68952723        -65.01162262         67.41030747      -2182.20194431
     307387.73315714      12890.19242908       1328.38391264      -2231.75347271
       3231.99945162      -2107.05964887       1018.65528664       1797.05443043
       -463.01841824      39812.05711978      10366.87569359       2325.62817037
      -1629.48035276       -852.61724819      -2436.47443366
 Total      moments (au):
          0.00000000          0.12841668          0.71840256         -0.29830908
        -67.53196938        -69.72385758        -79.77217763         -1.45493306
          4.18952828         -0.15678549         33.22535511         21.48182255
         19.21840431        -30.45733749         27.49960748        -56.17608067
         21.02381603         -0.06254275        -11.51173852        -71.45608359
     -15673.35424094      -3244.80161544      -1012.91744768        -22.83996477
        309.17359558        -36.93197924         31.83719082         26.76542565
         -6.12521283      -3117.43575982      -2985.57428483       -712.35849793
        -35.87429359         -0.73580912        -74.64151294
 Traceless Quadrup. (au):
          4.81069881          2.61881062         -7.42950943         -1.45493306
          4.18952828         -0.15678549
 Charge=              0.0000 electrons
 Dipole moment (field-independent basis, Debye):
    X=              0.3264    Y=              1.8260    Z=             -0.7582  Tot=              2.0039
 Quadrupole moment (field-independent basis, Debye-Ang):
   XX=            -90.8328   YY=            -93.7810   ZZ=           -107.2963
   XY=             -1.9569   XZ=              5.6351   YZ=             -0.2109
 Traceless Quadrupole moment (field-independent basis, Debye-Ang):
   XX=              6.4706   YY=              3.5224   ZZ=             -9.9929
   XY=             -1.9569   XZ=              5.6351   YZ=             -0.2109
 Octapole moment (field-independent basis, Debye-Ang**2):
  XXX=             23.6485  YYY=             15.2899  ZZZ=             13.6789  XYY=            -21.6784
  XXY=             19.5732  XXZ=            -39.9840  XZZ=             14.9639  YZZ=             -0.0445
  YYZ=             -8.1936  XYZ=            -50.8597
 Hexadecapole moment (field-independent basis, Debye-Ang**3):
 XXXX=          -5903.3368 YYYY=          -1222.1479 ZZZZ=           -381.5133 XXXY=             -8.6026
 XXXZ=            116.4496 YYYX=            -13.9104 YYYZ=             11.9914 ZZZX=             10.0811
 ZZZY=             -2.3070 XXYY=          -1174.1758 XXZZ=          -1124.5104 YYZZ=           -268.3084
 XXYZ=            -13.5120 YYXZ=             -0.2771 ZZXY=            -28.1136
 N-N= 1.240997193928D+03 E-N=-4.348257741346D+03  KE= 7.961584372591D+02
 Entering OneElI...
 OneElI was handed  4294776054 working-precision words.
 Calculate electrostatic properties
    NBasis =   302  MinDer = 0  MaxDer = 0
    NGrid  =    34  NMatD  =   1
 Requested accuracy = 0.1000D-12
 PrtBox:  NBox=     1 Levels=  1 BoxLen=   29.89 SMaxX=       20.51
          Shift=           10.355004            5.600734            1.875381
 Box      1 Number                   0 centers from      1 to    104:
 ShPair: Thresh= 1.00D-13 NBox=     1 BxSize= 2.99D+01 RnKept= 1.77D+01
         NSMCal=                 5460 NSMKep=                3711
 PrmmSu-InSpLW:  IPartL=    0 NPrtUS=    8 NPrtUL=    1 DoSpLW=F IThBeg=    0 IThEnd=    7 NThAct=    8.
 PrSmSu:  IncTry=   512 NBBP=         126174 NTPThr=   100 NPartT=    8 Incr=         157 LDynOK=F GPUOK=F.
 PrsmSu:  NPrtUS=   8 ThrOK=T IAlg=2 LenDen=           0 ISkipM=0 DoSpLW=F IThBeg=    0 IThEnd=    7.
 Prism:   IPart=     0 DynPar=F LinDyn=F Incr=         157.
 PRISM was handed   536708255 working-precision words and  3711 shell-pairs
 PRISM was handed   536708255 working-precision words and  3711 shell-pairs
 PRISM was handed   536708255 working-precision words and  3711 shell-pairs
 PRISM was handed   536708255 working-precision words and  3711 shell-pairs
 PRISM was handed   536708255 working-precision words and  3711 shell-pairs
 PRISM was handed   536708255 working-precision words and  3711 shell-pairs
 PRISM was handed   536708255 working-precision words and  3711 shell-pairs
 PRISM was handed   536708255 working-precision words and  3711 shell-pairs
 IPart=  0 NShTot=       16286 NBatch=         479 AvBLen=        34.0
 PrsmSu-ThDecC:  IPartSL=    0    0 NPrtUSL=    8    1 IThBeg=    0 IThEnd=    7 CPU=   -1 GPU=   -1 NThAct=    8.
 IPart=  1 NShTot=       16252 NBatch=         478 AvBLen=        34.0
 PrsmSu-ThDecC:  IPartSL=    1    0 NPrtUSL=    8    1 IThBeg=    0 IThEnd=    7 CPU=   -1 GPU=   -1 NThAct=    7.
 IPart=  6 NShTot=       15368 NBatch=         452 AvBLen=        34.0
 PrsmSu-ThDecC:  IPartSL=    6    0 NPrtUSL=    8    1 IThBeg=    0 IThEnd=    7 CPU=   -1 GPU=   -1 NThAct=    6.
 IPart=  5 NShTot=       15538 NBatch=         457 AvBLen=        34.0
 PrsmSu-ThDecC:  IPartSL=    5    0 NPrtUSL=    8    1 IThBeg=    0 IThEnd=    7 CPU=   -1 GPU=   -1 NThAct=    5.
 IPart=  4 NShTot=       15674 NBatch=         461 AvBLen=        34.0
 PrsmSu-ThDecC:  IPartSL=    4    0 NPrtUSL=    8    1 IThBeg=    0 IThEnd=    7 CPU=   -1 GPU=   -1 NThAct=    4.
 IPart=  2 NShTot=       16048 NBatch=         472 AvBLen=        34.0
 PrsmSu-ThDecC:  IPartSL=    2    0 NPrtUSL=    8    1 IThBeg=    0 IThEnd=    7 CPU=   -1 GPU=   -1 NThAct=    3.
 IPart=  7 NShTot=       15130 NBatch=         445 AvBLen=        34.0
 PrsmSu-ThDecC:  IPartSL=    7    0 NPrtUSL=    8    1 IThBeg=    0 IThEnd=    7 CPU=   -1 GPU=   -1 NThAct=    2.
 IPart=  3 NShTot=       15878 NBatch=         467 AvBLen=        34.0
 PrsmSu-ThDecC:  IPartSL=    3    0 NPrtUSL=    8    1 IThBeg=    0 IThEnd=    7 CPU=   -1 GPU=   -1 NThAct=    1.
 PrSmSu:  NxtVal=           1257.
 --------------------------------------------------------
       Center         ----      EFG at Nuclei      ----
                      3XX-RR        3YY-RR        3ZZ-RR
 --------------------------------------------------------
     1   Atom        0.120237      0.068890     -0.189127
     2   Atom        0.083900      0.128838     -0.212738
     3   Atom        0.082698      0.053674     -0.136372
     4   Atom        0.038305      0.183123     -0.221427
     5   Atom        0.139575      0.099286     -0.238860
     6   Atom        0.149835      0.039966     -0.189802
     7   Atom        0.094695      0.130501     -0.225196
     8   Atom        0.174389      0.100106     -0.274496
     9   Atom        0.159127      0.123018     -0.282146
    10   Atom        0.146739      0.045547     -0.192287
    11   Atom        0.064555      0.009386     -0.073941
    12   Atom        0.043153      0.230730     -0.273883
    13   Atom       -0.563932     -0.260992      0.824923
    14   Atom        0.282889      0.625417     -0.908306
    15   Atom        0.155567      0.201795     -0.357363
    16   Atom       -0.520506     -0.318636      0.839142
    17   Atom        0.109698     -0.240130      0.130431
    18   Atom       -0.067322     -0.050079      0.117401
    19   Atom        0.123029     -0.257840      0.134811
    20   Atom       -0.079628     -0.060066      0.139694
    21   Atom        0.112283     -0.253854      0.141570
    22   Atom       -0.062320     -0.158103      0.220423
    23   Atom        0.123269     -0.120095     -0.003174
    24   Atom       -0.084683     -0.050655      0.135338
    25   Atom        0.103091     -0.178204      0.075113
    26   Atom       -0.118917      0.110918      0.007999
    27   Atom       -0.046554     -0.157762      0.204316
    28   Atom        0.136060     -0.152916      0.016856
    29   Atom       -0.016051     -1.369155      1.385207
    30   Atom        0.196700     -0.356750      0.160050
    31   Atom        0.107189     -0.239314      0.132125
    32   Atom       -0.191809      0.056061      0.135749
    33   Atom       -0.007380      0.130432     -0.123052
    34   Atom        0.073200      0.034619     -0.107820
 --------------------------------------------------------
                        XY            XZ            YZ
 --------------------------------------------------------
     1   Atom       -0.012463     -0.045728      0.103575
     2   Atom        0.010224     -0.036843      0.126626
     3   Atom        0.263356      0.058656      0.023834
     4   Atom       -0.081705     -0.045653      0.161675
     5   Atom        0.045384     -0.043723      0.127661
     6   Atom        0.021343     -0.042443      0.089220
     7   Atom       -0.006731      0.017311     -0.101382
     8   Atom       -0.018201      0.021434     -0.110560
     9   Atom        0.039687      0.018869     -0.118999
    10   Atom        0.015296      0.015303     -0.069796
    11   Atom        0.258966     -0.042367     -0.024246
    12   Atom       -0.085729      0.019010     -0.149128
    13   Atom       -0.006838     -0.174102     -0.515953
    14   Atom        1.468029     -0.875901      0.412122
    15   Atom        0.017030     -0.157476      0.072702
    16   Atom        0.029940      0.284967      0.452239
    17   Atom       -0.108544     -0.029011     -0.131243
    18   Atom        0.200964      0.100149     -0.104140
    19   Atom       -0.091658      0.019866      0.111411
    20   Atom        0.213017     -0.073278      0.077973
    21   Atom       -0.100791      0.026530      0.111609
    22   Atom        0.270594     -0.041056      0.020836
    23   Atom       -0.104261     -0.100814     -0.287958
    24   Atom        0.223773     -0.018013      0.014372
    25   Atom       -0.122874     -0.057668     -0.131041
    26   Atom       -0.106117      0.174644      0.076307
    27   Atom        0.263458      0.075921     -0.060117
    28   Atom       -0.090375      0.088021      0.285880
    29   Atom        0.553143      0.398228     -0.949654
    30   Atom       -0.094072     -0.023607     -0.135594
    31   Atom       -0.109706     -0.031111     -0.124853
    32   Atom        0.163400      0.084544     -0.046560
    33   Atom       -0.013739     -0.208204     -0.022312
    34   Atom       -0.088235      0.142176      0.152624
 --------------------------------------------------------


 ---------------------------------------------------------------------------------
              Nuclear Quadrupole Coupling Constant in Principal Axis System
 ---------------------------------------------------------------------------------

       Atom             a.u.   MegaHertz   Gauss  10(-4) cm-1        Axes

              Baa    -0.6136     2.947     1.052     0.983  0.8968  0.3707  0.2415
    13 N(14)  Bbb    -0.4331     2.080     0.742     0.694 -0.4313  0.8541  0.2906
              Bcc     1.0467    -5.027    -1.794    -1.677 -0.0985 -0.3648  0.9259
 
              Baa    -0.6019     2.891     1.031     0.964  0.8818  0.3712 -0.2909
    16 N(14)  Bbb    -0.4428     2.127     0.759     0.709 -0.4375  0.8741 -0.2111
              Bcc     1.0447    -5.018    -1.790    -1.674  0.1759  0.3134  0.9332
 

 ---------------------------------------------------------------------------------

 No NMR shielding tensors so no spin-rotation constants.
 Leave Link  601 at Fri Nov 11 10:22:44 2022, MaxMem=  4294967296 cpu:               2.0 elap:               0.3
 FitSet:  NAtFit=    34 NAtPot=    34 NAtFrz=     0 MDM=    38 TotChg=   0.00000
 Merz-Kollman atomic radii used.
 Atom Element Radius
    1     6    1.50
    2     6    1.50
    3     6    1.50
    4     6    1.50
    5     6    1.50
    6     6    1.50
    7     6    1.50
    8     6    1.50
    9     6    1.50
   10     6    1.50
   11     6    1.50
   12     6    1.50
   13     7    1.50
   14     8    1.40
   15     6    1.50
   16     7    1.50
   17     1    1.20
   18     1    1.20
   19     1    1.20
   20     1    1.20
   21     1    1.20
   22     1    1.20
   23     1    1.20
   24     1    1.20
   25     1    1.20
   26     1    1.20
   27     1    1.20
   28     1    1.20
   29     8    1.40
   30     6    1.50
   31     1    1.20
   32     1    1.20
   33     1    1.20
   34     1    1.20
 Generate VDW surfaces: Layer= 4 Dens= 6 Start= 1.400 Inc= 0.200

 **********************************************************************

            Electrostatic Properties Using The SCF Density.

 **********************************************************************

       Atomic Center    1 is at  -1.765252  0.616279  0.142487
       Atomic Center    2 is at  -0.760917 -0.287190 -0.267593
       Atomic Center    3 is at  -3.104019  0.239820  0.175358
       Atomic Center    4 is at  -3.498881 -1.068028 -0.199915
       Atomic Center    5 is at  -1.158350 -1.578093 -0.641116
       Atomic Center    6 is at  -2.501238 -1.959002 -0.606344
       Atomic Center    7 is at   0.662937  0.128425 -0.303139
       Atomic Center    8 is at   1.696112 -0.784453 -0.020194
       Atomic Center    9 is at   1.042555  1.443353 -0.627078
       Atomic Center   10 is at   2.380218  1.830451 -0.669483
       Atomic Center   11 is at   3.031737 -0.403455 -0.061187
       Atomic Center   12 is at   3.407314  0.917036 -0.385634
       Atomic Center   13 is at  -4.843186 -1.437662 -0.093061
       Atomic Center   14 is at   4.034555 -1.331873  0.181102
       Atomic Center   15 is at   4.394693 -1.455071  1.564244
       Atomic Center   16 is at   4.755173  1.279135 -0.366879
       Atomic Center   17 is at  -1.481273  1.612999  0.459381
       Atomic Center   18 is at  -0.419087 -2.291983 -0.992409
       Atomic Center   19 is at   1.468059 -1.811656  0.249775
       Atomic Center   20 is at   0.280673  2.174389 -0.882739
       Atomic Center   21 is at   2.639171  2.852485 -0.936703
       Atomic Center   22 is at  -5.479632 -0.651505 -0.164159
       Atomic Center   23 is at  -5.114916 -2.186062 -0.720920
       Atomic Center   24 is at   5.194151 -2.197875  1.612013
       Atomic Center   25 is at   4.757316 -0.501086  1.965597
       Atomic Center   26 is at   3.541169 -1.797660  2.161800
       Atomic Center   27 is at   5.375349  0.493011 -0.530025
       Atomic Center   28 is at   4.986460  2.062358 -0.967673
       Atomic Center   29 is at  -4.139878  1.053011  0.562335
       Atomic Center   30 is at  -3.847720  2.405778  0.895275
       Atomic Center   31 is at  -2.786535 -2.963781 -0.909837
       Atomic Center   32 is at  -4.806205  2.870190  1.132212
       Atomic Center   33 is at  -3.187496  2.468595  1.768990
       Atomic Center   34 is at  -3.383671  2.933056  0.052699
      ESP Fit Center   35 is at  -1.765252  0.616279  2.242487
      ESP Fit Center   36 is at  -1.355562  0.616279  2.202136
      ESP Fit Center   37 is at  -1.560407  0.971081  2.202136
      ESP Fit Center   38 is at  -1.970097  0.971081  2.202136
      ESP Fit Center   39 is at  -2.174942  0.616279  2.202136
      ESP Fit Center   40 is at  -1.970097  0.261477  2.202136
      ESP Fit Center   41 is at  -1.560407  0.261477  2.202136
      ESP Fit Center   42 is at  -0.961617  0.616279  2.082634
      ESP Fit Center   43 is at  -1.069283  1.018097  2.082634
      ESP Fit Center   44 is at  -2.167070 -0.079689  2.082634
      ESP Fit Center   45 is at  -1.765252 -0.187356  2.082634
      ESP Fit Center   46 is at  -1.363434 -0.079689  2.082634
      ESP Fit Center   47 is at  -1.069283  0.214462  2.082634
      ESP Fit Center   48 is at  -0.598554  0.616279  1.888573
      ESP Fit Center   49 is at  -0.677339  1.037739  1.888573
      ESP Fit Center   50 is at  -2.084534 -0.505880  1.888573
      ESP Fit Center   51 is at  -1.657603 -0.545441  1.888573
      ESP Fit Center   52 is at  -1.245210 -0.428106  1.888573
      ESP Fit Center   53 is at  -0.903052 -0.169720  1.888573
      ESP Fit Center   54 is at  -0.677339  0.194819  1.888573
      ESP Fit Center   55 is at  -0.280328  0.616279  1.627411
      ESP Fit Center   56 is at  -0.340478  1.034631  1.627411
      ESP Fit Center   57 is at  -1.976579 -0.853531  1.627411
      ESP Fit Center   58 is at  -1.553925 -0.853531  1.627411
      ESP Fit Center   59 is at  -1.975719  2.349634 -1.024211
      ESP Fit Center   60 is at  -1.553925  2.086089 -1.342437
      ESP Fit Center   61 is at  -1.976579  2.086089 -1.342437
      ESP Fit Center   62 is at  -2.382112  1.967014 -1.342437
      ESP Fit Center   63 is at  -2.737670  1.738510 -1.342437
      ESP Fit Center   64 is at  -1.245210  1.660664 -1.603599
      ESP Fit Center   65 is at  -1.657603  1.778000 -1.603599
      ESP Fit Center   66 is at  -2.084534  1.738439 -1.603599
      ESP Fit Center   67 is at  -2.468344  1.547324 -1.603599
      ESP Fit Center   68 is at  -1.363434  1.312248 -1.797660
      ESP Fit Center   69 is at  -1.765252  1.419914 -1.797660
      ESP Fit Center   70 is at  -2.167070  1.312248 -1.797660
      ESP Fit Center   71 is at  -2.461220  1.018097 -1.797660
      ESP Fit Center   72 is at  -1.560407  0.971081 -1.917162
      ESP Fit Center   73 is at  -1.970097  0.971081 -1.917162
      ESP Fit Center   74 is at  -2.174942  0.616279 -1.917162
      ESP Fit Center   75 is at  -1.970097  0.261477 -1.917162
      ESP Fit Center   76 is at  -1.765252  0.616279 -1.957513
      ESP Fit Center   77 is at  -0.760917 -0.287190  1.832407
      ESP Fit Center   78 is at  -0.351227 -0.287190  1.792056
      ESP Fit Center   79 is at  -0.556072  0.067612  1.792056
      ESP Fit Center   80 is at  -0.965762 -0.641992  1.792056
      ESP Fit Center   81 is at  -0.556072 -0.641992  1.792056
      ESP Fit Center   82 is at   0.042718 -0.287190  1.672554
      ESP Fit Center   83 is at  -0.064948  0.114628  1.672554
      ESP Fit Center   84 is at  -1.162735 -0.983158  1.672554
      ESP Fit Center   85 is at  -0.760917 -1.090825  1.672554
      ESP Fit Center   86 is at  -0.359099 -0.983158  1.672554
      ESP Fit Center   87 is at  -0.064948 -0.689007  1.672554
      ESP Fit Center   88 is at  -1.464009 -1.218235  1.478493
      ESP Fit Center   89 is at  -1.080199 -1.409349  1.478493
      ESP Fit Center   90 is at  -0.653268 -1.448910  1.478493
      ESP Fit Center   91 is at  -0.240875 -1.331575  1.478493
      ESP Fit Center   92 is at   0.101283 -1.073189  1.478493
      ESP Fit Center   93 is at  -0.144057 -1.637924  1.217331
      ESP Fit Center   94 is at  -0.972244  1.182620 -1.752517
      ESP Fit Center   95 is at  -0.653268  0.874531 -2.013679
      ESP Fit Center   96 is at  -1.080199  0.834970 -2.013679
      ESP Fit Center   97 is at  -1.464009  0.643855 -2.013679
      ESP Fit Center   98 is at  -1.752863  0.326997 -2.013679
      ESP Fit Center   99 is at  -1.907749 -0.072810 -2.013679
      ESP Fit Center  100 is at  -0.359099  0.408779 -2.207740
      ESP Fit Center  101 is at  -0.760917  0.516445 -2.207740
      ESP Fit Center  102 is at  -1.162735  0.408779 -2.207740
      ESP Fit Center  103 is at  -1.456885  0.114628 -2.207740
      ESP Fit Center  104 is at  -0.064948 -0.689007 -2.207740
      ESP Fit Center  105 is at  -0.351227 -0.287190 -2.327242
      ESP Fit Center  106 is at  -0.556072  0.067612 -2.327242
      ESP Fit Center  107 is at  -0.965762  0.067612 -2.327242
      ESP Fit Center  108 is at  -1.170607 -0.287190 -2.327242
      ESP Fit Center  109 is at  -0.760917 -0.287190 -2.367593
      ESP Fit Center  110 is at  -3.104019  0.239820  2.275358
      ESP Fit Center  111 is at  -2.694329  0.239820  2.235007
      ESP Fit Center  112 is at  -2.899174  0.594622  2.235007
      ESP Fit Center  113 is at  -3.513709  0.239820  2.235007
      ESP Fit Center  114 is at  -3.308864 -0.114981  2.235007
      ESP Fit Center  115 is at  -2.899174 -0.114981  2.235007
      ESP Fit Center  116 is at  -3.799987 -0.161997  2.115505
      ESP Fit Center  117 is at  -3.505837 -0.456148  2.115505
      ESP Fit Center  118 is at  -3.104019 -0.563815  2.115505
      ESP Fit Center  119 is at  -2.702201 -0.456148  2.115505
      ESP Fit Center  120 is at  -2.408050 -0.161997  2.115505
      ESP Fit Center  121 is at  -4.095965 -0.374367  1.921444
      ESP Fit Center  122 is at  -3.807111 -0.691224  1.921444
      ESP Fit Center  123 is at  -3.423301 -0.882339  1.921444
      ESP Fit Center  124 is at  -2.996370 -0.921900  1.921444
      ESP Fit Center  125 is at  -2.583977 -0.804565  1.921444
      ESP Fit Center  126 is at  -2.241819 -0.546179  1.921444
      ESP Fit Center  127 is at  -2.487159 -1.110914  1.660282
      ESP Fit Center  128 is at  -2.131600 -0.882411  1.660282
      ESP Fit Center  129 is at  -2.892692  1.709630 -1.309566
      ESP Fit Center  130 is at  -3.315346  1.709630 -1.309566
      ESP Fit Center  131 is at  -3.720879  1.590555 -1.309566
      ESP Fit Center  132 is at  -2.996370  1.401541 -1.570728
      ESP Fit Center  133 is at  -3.423301  1.361980 -1.570728
      ESP Fit Center  134 is at  -3.807111  1.170865 -1.570728
      ESP Fit Center  135 is at  -4.095965  0.854007 -1.570728
      ESP Fit Center  136 is at  -4.250851  0.454200 -1.570728
      ESP Fit Center  137 is at  -2.702201  0.935789 -1.764789
      ESP Fit Center  138 is at  -3.104019  1.043455 -1.764789
      ESP Fit Center  139 is at  -3.505837  0.935789 -1.764789
      ESP Fit Center  140 is at  -3.799987  0.641638 -1.764789
      ESP Fit Center  141 is at  -2.408050 -0.161997 -1.764789
      ESP Fit Center  142 is at  -2.694329  0.239820 -1.884291
      ESP Fit Center  143 is at  -2.899174  0.594622 -1.884291
      ESP Fit Center  144 is at  -3.308864  0.594622 -1.884291
      ESP Fit Center  145 is at  -3.513709  0.239820 -1.884291
      ESP Fit Center  146 is at  -3.104019  0.239820 -1.924642
      ESP Fit Center  147 is at  -3.498881 -1.068028  1.900085
      ESP Fit Center  148 is at  -3.089191 -1.068028  1.859734
      ESP Fit Center  149 is at  -3.908571 -1.068028  1.859734
      ESP Fit Center  150 is at  -3.703726 -1.422829  1.859734
      ESP Fit Center  151 is at  -3.294036 -1.422829  1.859734
      ESP Fit Center  152 is at  -3.498881 -1.871663  1.740232
      ESP Fit Center  153 is at  -3.097063 -1.763996  1.740232
      ESP Fit Center  154 is at  -2.802912 -1.469845  1.740232
      ESP Fit Center  155 is at  -3.391232 -2.229748  1.546171
      ESP Fit Center  156 is at  -2.978839 -2.112413  1.546171
      ESP Fit Center  157 is at  -2.636681 -1.854027  1.546171
      ESP Fit Center  158 is at  -2.410968 -1.489487  1.546171
      ESP Fit Center  159 is at  -3.287554 -2.537838  1.285009
      ESP Fit Center  160 is at  -4.115741  0.282707 -1.684839
      ESP Fit Center  161 is at  -4.471300  0.054203 -1.684839
      ESP Fit Center  162 is at  -2.636681 -0.282029 -1.946001
      ESP Fit Center  163 is at  -2.978839 -0.023643 -1.946001
      ESP Fit Center  164 is at  -3.391232  0.093693 -1.946001
      ESP Fit Center  165 is at  -3.818163  0.054132 -1.946001
      ESP Fit Center  166 is at  -4.201973 -0.136983 -1.946001
      ESP Fit Center  167 is at  -4.490827 -0.453841 -1.946001
      ESP Fit Center  168 is at  -3.097063 -0.372059 -2.140062
      ESP Fit Center  169 is at  -3.498881 -0.264393 -2.140062
      ESP Fit Center  170 is at  -3.900699 -0.372059 -2.140062
      ESP Fit Center  171 is at  -4.194849 -0.666210 -2.140062
      ESP Fit Center  172 is at  -4.302516 -1.068028 -2.140062
      ESP Fit Center  173 is at  -4.194849 -1.469845 -2.140062
      ESP Fit Center  174 is at  -3.294036 -0.713226 -2.259564
      ESP Fit Center  175 is at  -3.703726 -0.713226 -2.259564
      ESP Fit Center  176 is at  -3.908571 -1.068028 -2.259564
      ESP Fit Center  177 is at  -3.703726 -1.422829 -2.259564
      ESP Fit Center  178 is at  -3.498881 -1.068028 -2.299915
      ESP Fit Center  179 is at  -1.158350 -1.578093  1.458884
      ESP Fit Center  180 is at  -0.748660 -1.578093  1.418533
      ESP Fit Center  181 is at  -1.568040 -1.578093  1.418533
      ESP Fit Center  182 is at  -1.363195 -1.932895  1.418533
      ESP Fit Center  183 is at  -0.953505 -1.932895  1.418533
      ESP Fit Center  184 is at  -1.854319 -1.176275  1.299031
      ESP Fit Center  185 is at  -1.560168 -2.274061  1.299031
      ESP Fit Center  186 is at  -1.158350 -2.381728  1.299031
      ESP Fit Center  187 is at  -0.756532 -2.274061  1.299031
      ESP Fit Center  188 is at  -0.462382 -1.979910  1.299031
      ESP Fit Center  189 is at  -1.477632 -2.700252  1.104970
      ESP Fit Center  190 is at  -1.050701 -2.739813  1.104970
      ESP Fit Center  191 is at  -0.638308 -2.622478  1.104970
      ESP Fit Center  192 is at  -0.296150 -2.364092  1.104970
      ESP Fit Center  193 is at  -0.070437 -1.999553  1.104970
      ESP Fit Center  194 is at  -1.369677 -3.047903  0.843808
      ESP Fit Center  195 is at  -0.947023 -3.047903  0.843808
      ESP Fit Center  196 is at  -0.541490 -2.928827  0.843808
      ESP Fit Center  197 is at  -0.185931 -2.700324  0.843808
      ESP Fit Center  198 is at  -0.947883 -3.311448  0.525581
      ESP Fit Center  199 is at  -0.539179 -3.210712  0.525581
      ESP Fit Center  200 is at  -0.166460 -3.015094  0.525581
      ESP Fit Center  201 is at  -1.053313 -3.515394  0.162519
      ESP Fit Center  202 is at  -1.262670 -3.635098 -0.231426
      ESP Fit Center  203 is at   0.266424 -1.159741 -2.126040
      ESP Fit Center  204 is at   0.090848 -0.775282 -2.126040
      ESP Fit Center  205 is at  -1.775210 -0.227358 -2.126040
      ESP Fit Center  206 is at  -2.130769 -0.455862 -2.126040
      ESP Fit Center  207 is at  -0.070437 -1.156633 -2.387202
      ESP Fit Center  208 is at  -0.296150 -0.792094 -2.387202
      ESP Fit Center  209 is at  -0.638308 -0.533708 -2.387202
      ESP Fit Center  210 is at  -1.050701 -0.416372 -2.387202
      ESP Fit Center  211 is at  -1.477632 -0.455933 -2.387202
      ESP Fit Center  212 is at  -1.861442 -0.647048 -2.387202
      ESP Fit Center  213 is at  -1.477632 -2.700252 -2.387202
      ESP Fit Center  214 is at  -0.354715 -1.578093 -2.581263
      ESP Fit Center  215 is at  -0.462382 -1.176275 -2.581263
      ESP Fit Center  216 is at  -0.756532 -0.882124 -2.581263
      ESP Fit Center  217 is at  -1.158350 -0.774458 -2.581263
      ESP Fit Center  218 is at  -1.560168 -0.882124 -2.581263
      ESP Fit Center  219 is at  -1.854319 -1.176275 -2.581263
      ESP Fit Center  220 is at  -1.560168 -2.274061 -2.581263
      ESP Fit Center  221 is at  -1.158350 -2.381728 -2.581263
      ESP Fit Center  222 is at  -0.748660 -1.578093 -2.700765
      ESP Fit Center  223 is at  -0.953505 -1.223291 -2.700765
      ESP Fit Center  224 is at  -1.363195 -1.223291 -2.700765
      ESP Fit Center  225 is at  -1.568040 -1.578093 -2.700765
      ESP Fit Center  226 is at  -1.363195 -1.932895 -2.700765
      ESP Fit Center  227 is at  -0.953505 -1.932895 -2.700765
      ESP Fit Center  228 is at  -1.158350 -1.578093 -2.741116
      ESP Fit Center  229 is at  -2.501238 -1.959002  1.493656
      ESP Fit Center  230 is at  -2.091548 -1.959002  1.453305
      ESP Fit Center  231 is at  -2.296393 -1.604200  1.453305
      ESP Fit Center  232 is at  -2.706083 -2.313803  1.453305
      ESP Fit Center  233 is at  -2.296393 -2.313803  1.453305
      ESP Fit Center  234 is at  -2.903056 -2.654970  1.333803
      ESP Fit Center  235 is at  -2.501238 -2.762637  1.333803
      ESP Fit Center  236 is at  -2.099420 -2.654970  1.333803
      ESP Fit Center  237 is at  -1.805270 -2.360819  1.333803
      ESP Fit Center  238 is at  -3.204330 -2.890046  1.139742
      ESP Fit Center  239 is at  -2.820520 -3.081161  1.139742
      ESP Fit Center  240 is at  -2.393589 -3.120722  1.139742
      ESP Fit Center  241 is at  -1.981196 -3.003387  1.139742
      ESP Fit Center  242 is at  -1.639038 -2.745001  1.139742
      ESP Fit Center  243 is at  -3.473657 -3.081233  0.878580
      ESP Fit Center  244 is at  -3.118098 -3.309736  0.878580
      ESP Fit Center  245 is at  -2.712565 -3.428812  0.878580
      ESP Fit Center  246 is at  -2.289911 -3.428812  0.878580
      ESP Fit Center  247 is at  -1.884378 -3.309736  0.878580
      ESP Fit Center  248 is at  -1.528819 -3.081233  0.878580
      ESP Fit Center  249 is at  -3.493128 -3.396003  0.560353
      ESP Fit Center  250 is at  -2.290771 -3.692357  0.560353
      ESP Fit Center  251 is at  -1.882067 -3.591621  0.560353
      ESP Fit Center  252 is at  -1.509348 -3.396003  0.560353
      ESP Fit Center  253 is at  -1.592457 -3.673145  0.197291
      ESP Fit Center  254 is at  -1.411758 -3.706911 -0.196654
      ESP Fit Center  255 is at  -2.289911 -0.489192 -2.091268
      ESP Fit Center  256 is at  -2.712565 -0.489192 -2.091268
      ESP Fit Center  257 is at  -3.986162 -1.959002 -2.091268
      ESP Fit Center  258 is at  -3.926012 -2.377353 -2.091268
      ESP Fit Center  259 is at  -1.528819 -3.081233 -2.091268
      ESP Fit Center  260 is at  -2.393589 -0.797281 -2.352430
      ESP Fit Center  261 is at  -2.820520 -0.836842 -2.352430
      ESP Fit Center  262 is at  -3.204330 -1.027957 -2.352430
      ESP Fit Center  263 is at  -3.493184 -1.344815 -2.352430
      ESP Fit Center  264 is at  -3.648070 -1.744622 -2.352430
      ESP Fit Center  265 is at  -3.648070 -2.173382 -2.352430
      ESP Fit Center  266 is at  -1.639038 -2.745001 -2.352430
      ESP Fit Center  267 is at  -2.099420 -1.263033 -2.546491
      ESP Fit Center  268 is at  -2.501238 -1.155367 -2.546491
      ESP Fit Center  269 is at  -2.903056 -1.263033 -2.546491
      ESP Fit Center  270 is at  -3.197207 -1.557184 -2.546491
      ESP Fit Center  271 is at  -3.304873 -1.959002 -2.546491
      ESP Fit Center  272 is at  -3.197207 -2.360819 -2.546491
      ESP Fit Center  273 is at  -2.099420 -2.654970 -2.546491
      ESP Fit Center  274 is at  -1.805270 -2.360819 -2.546491
      ESP Fit Center  275 is at  -2.091548 -1.959002 -2.665993
      ESP Fit Center  276 is at  -2.296393 -1.604200 -2.665993
      ESP Fit Center  277 is at  -2.706083 -1.604200 -2.665993
      ESP Fit Center  278 is at  -2.910928 -1.959002 -2.665993
      ESP Fit Center  279 is at  -2.706083 -2.313803 -2.665993
      ESP Fit Center  280 is at  -2.296393 -2.313803 -2.665993
      ESP Fit Center  281 is at  -2.501238 -1.959002 -2.706344
      ESP Fit Center  282 is at   0.662937  0.128425  1.796861
      ESP Fit Center  283 is at   0.867782  0.483227  1.756510
      ESP Fit Center  284 is at   0.458092  0.483227  1.756510
      ESP Fit Center  285 is at   0.253247  0.128425  1.756510
      ESP Fit Center  286 is at   0.458092 -0.226377  1.756510
      ESP Fit Center  287 is at   1.358906  0.530243  1.637008
      ESP Fit Center  288 is at   1.064755  0.824394  1.637008
      ESP Fit Center  289 is at   0.662937  0.932060  1.637008
      ESP Fit Center  290 is at   0.261119  0.824394  1.637008
      ESP Fit Center  291 is at  -0.033031  0.530243  1.637008
      ESP Fit Center  292 is at   0.261119 -0.567543  1.637008
      ESP Fit Center  293 is at   1.525137  0.914424  1.442947
      ESP Fit Center  294 is at   0.343655  1.250585  1.442947
      ESP Fit Center  295 is at  -0.040155  1.059470  1.442947
      ESP Fit Center  296 is at   0.343655 -0.993735 -2.049225
      ESP Fit Center  297 is at   0.770586 -1.033296 -2.049225
      ESP Fit Center  298 is at   1.466572  0.128425 -2.243286
      ESP Fit Center  299 is at  -0.033031  0.530243 -2.243286
      ESP Fit Center  300 is at  -0.140698  0.128425 -2.243286
      ESP Fit Center  301 is at  -0.033031 -0.273393 -2.243286
      ESP Fit Center  302 is at   0.261119 -0.567543 -2.243286
[...]
 8237 Fit       0.005453
 8238 Fit       0.006210
 8239 Fit       0.006643
 8240 Fit       0.006359
 8241 Fit       0.007428
 8242 Fit       0.005278
 8243 Fit       0.006939
 8244 Fit       0.007721
 8245 Fit       0.007837
 8246 Fit       0.009063
 8247 Fit       0.008781
 8248 Fit       0.002423
 8249 Fit       0.005578
 8250 Fit       0.007510
 8251 Fit       0.008589
 8252 Fit       0.009049
 8253 Fit       0.010330
 8254 Fit       0.010513
 8255 Fit       0.001774
 8256 Fit       0.005373
 8257 Fit       0.007692
 8258 Fit       0.009123
 8259 Fit       0.009932
 8260 Fit       0.011205
 8261 Fit       0.011823
 8262 Fit       0.000767
 8263 Fit       0.004791
 8264 Fit       0.007506
 8265 Fit       0.009294
 8266 Fit       0.010445
 8267 Fit       0.011671
 8268 Fit       0.012669
 8269 Fit      -0.005481
 8270 Fit       0.000081
 8271 Fit       0.004185
 8272 Fit       0.007115
 8273 Fit       0.009163
 8274 Fit       0.010596
 8275 Fit       0.011707
 8276 Fit      -0.001860
 8277 Fit       0.002597
 8278 Fit       0.005991
 8279 Fit       0.008471
 8280 Fit       0.010281
 8281 Fit       0.011288
 8282 Fit      -0.007545
 8283 Fit      -0.003282
 8284 Fit       0.000964
 8285 Fit       0.004582
 8286 Fit       0.007407
 8287 Fit       0.009554
 8288 Fit      -0.004575
 8289 Fit      -0.001141
 8290 Fit       0.002515
 8291 Fit       0.005739
 8292 Fit       0.008312
 8293 Fit       0.003193
 8294 Fit       0.006404
 8295 Fit       0.005197
 8296 Fit       0.005726
 8297 Fit       0.006188
 8298 Fit       0.006612
 8299 Fit       0.007071
 8300 Fit       0.007659
 8301 Fit       0.008118
 8302 Fit       0.008611
 8303 Fit       0.009092
 8304 Fit       0.009554
 8305 Fit       0.010023
 8306 Fit       0.010581
 8307 Fit       0.010307
 8308 Fit       0.010556
 8309 Fit       0.010931
 8310 Fit       0.011356
 8311 Fit       0.011789
 8312 Fit       0.012223
 8313 Fit       0.012682
 8314 Fit       0.013243
 8315 Fit       0.014070
 8316 Fit       0.012492
 8317 Fit       0.012535
 8318 Fit       0.012788
 8319 Fit       0.013146
 8320 Fit       0.013544
 8321 Fit       0.013950
 8322 Fit       0.014361
 8323 Fit       0.014814
 8324 Fit       0.015399
 8325 Fit       0.016312
 8326 Fit       0.013955
 8327 Fit       0.014107
 8328 Fit       0.014410
 8329 Fit       0.014779
 8330 Fit       0.015163
 8331 Fit       0.015540
 8332 Fit       0.015916
 8333 Fit       0.016336
 8334 Fit       0.016904
 8335 Fit       0.014689
 8336 Fit       0.014822
 8337 Fit       0.015105
 8338 Fit       0.015462
 8339 Fit       0.015836
 8340 Fit       0.016189
 8341 Fit       0.016505
 8342 Fit       0.016790
 8343 Fit       0.017075
 8344 Fit       0.017414
 8345 Fit       0.014805
 8346 Fit       0.015209
 8347 Fit       0.015643
 8348 Fit       0.016065
 8349 Fit       0.016432
 8350 Fit       0.016713
 8351 Fit       0.016888
 8352 Fit       0.016942
 8353 Fit       0.016830
 8354 Fit       0.014517
 8355 Fit       0.015173
 8356 Fit       0.015723
 8357 Fit       0.016151
 8358 Fit       0.016420
 8359 Fit       0.016485
 8360 Fit       0.016279
 8361 Fit       0.015660
 8362 Fit       0.014311
 8363 Fit       0.013720
 8364 Fit       0.013889
 8365 Fit       0.014774
 8366 Fit       0.015372
 8367 Fit       0.015661
 8368 Fit       0.015567
 8369 Fit       0.014948
 8370 Fit       0.013540
 8371 Fit       0.010975
 8372 Fit       0.012651
 8373 Fit       0.012961
 8374 Fit       0.014028
 8375 Fit       0.014399
 8376 Fit       0.013933
 8377 Fit       0.012347
 8378 Fit       0.009466
 8379 Fit       0.006021
 8380 Fit       0.011184
 8381 Fit       0.011748
 8382 Fit       0.012595
 8383 Fit       0.011248
 8384 Fit       0.008367
 8385 Fit       0.009341
 8386 Fit       0.010235
 8387 Fit      -0.014491
 8388 Fit      -0.016010
 8389 Fit      -0.018439
 8390 Fit      -0.018663
 8391 Fit      -0.016668
 8392 Fit      -0.016526
 8393 Fit      -0.019937
 8394 Fit      -0.022245
 8395 Fit      -0.022952
 8396 Fit      -0.022040
 8397 Fit      -0.012479
 8398 Fit      -0.016450
 8399 Fit      -0.020215
 8400 Fit      -0.023635
 8401 Fit      -0.026216
 8402 Fit      -0.027339
 8403 Fit      -0.010029
 8404 Fit      -0.013981
 8405 Fit      -0.017837
 8406 Fit      -0.021848
 8407 Fit      -0.026039
 8408 Fit      -0.009248
 8409 Fit      -0.012949
 8410 Fit      -0.016605
 8411 Fit      -0.020739
 8412 Fit      -0.008145
 8413 Fit      -0.011281
 8414 Fit      -0.014336
 8415 Fit      -0.005270
 8416 Fit      -0.007899
 8417 Fit      -0.010003
 8418 Fit      -0.004874
 8419 Fit      -0.006067
 8420 Fit      -0.002498
 8421 Fit      -0.002926
 8422 Fit      -0.001123
 8423 Fit      -0.000279
 8424 Fit      -0.000173
 8425 Fit       0.000728
 8426 Fit      -0.000516
 8427 Fit      -0.000086
 8428 Fit      -0.001173
 8429 Fit      -0.000681
 8430 Fit      -0.001934
 8431 Fit      -0.001568
 8432 Fit      -0.002394
 8433 Fit      -0.002816
 8434 Fit      -0.002182
 8435 Fit      -0.003107
 8436 Fit      -0.003741
 8437 Fit      -0.003605
 8438 Fit      -0.002502
 8439 Fit      -0.004901
 8440 Fit      -0.005024
 8441 Fit      -0.004676
 8442 Fit       0.003120
 8443 Fit       0.000813
 8444 Fit      -0.001633
 8445 Fit      -0.003285
 8446 Fit       0.006052
 8447 Fit       0.004747
 8448 Fit       0.002920
 8449 Fit       0.000545
 8450 Fit      -0.002173
 8451 Fit      -0.004778
 8452 Fit      -0.006619
 8453 Fit      -0.007101
 8454 Fit       0.007764
 8455 Fit       0.006977
 8456 Fit       0.001932
 8457 Fit      -0.000903
 8458 Fit      -0.004092
 8459 Fit      -0.007271
 8460 Fit      -0.009882
 8461 Fit      -0.011298
 8462 Fit      -0.011169
 8463 Fit       0.009577
 8464 Fit       0.009209
 8465 Fit       0.008811
 8466 Fit      -0.004051
 8467 Fit      -0.007712
 8468 Fit      -0.011325
 8469 Fit       0.010372
 8470 Fit       0.010140
 8471 Fit       0.009927
 8472 Fit      -0.004037
 8473 Fit      -0.008254
 8474 Fit       0.011187
 8475 Fit       0.011035
 8476 Fit       0.010905
 8477 Fit       0.010827
 8478 Fit      -0.008273
 8479 Fit       0.011800
 8480 Fit       0.011738
 8481 Fit       0.011641
 8482 Fit       0.011541
 8483 Fit       0.011482
 8484 Fit       0.012136
 8485 Fit       0.012169
 8486 Fit       0.012151
 8487 Fit       0.012087
 8488 Fit       0.011997
 8489 Fit       0.011914
 8490 Fit       0.011886
 8491 Fit       0.012545
 8492 Fit       0.012540
 8493 Fit       0.012535
 8494 Fit       0.012503
 8495 Fit       0.012429
 8496 Fit       0.012319
 8497 Fit       0.012196
 8498 Fit       0.012103
 8499 Fit       0.012091
 8500 Fit       0.013558
 8501 Fit       0.013219
 8502 Fit       0.013051
 8503 Fit       0.012944
 8504 Fit       0.012833
 8505 Fit       0.012688
 8506 Fit       0.012506
 8507 Fit       0.012310
 8508 Fit       0.012143
 8509 Fit       0.012057
 8510 Fit       0.013165
 8511 Fit       0.012912
 8512 Fit       0.012622
 8513 Fit       0.012318
 8514 Fit       0.012041
 8515 Fit       0.011838
 8516 Fit       0.012250
 8517 Fit       0.011834
 8518 Fit       0.011485
 8519 Fit       0.011233
 8520 Fit       0.011263
 8521 Fit       0.010777
 8522 Fit       0.010381
 8523 Fit       0.010253
 8524 Fit       0.009623
 8525 Fit       0.009043
 8526 Fit       0.008884
 8527 Fit       0.008074
 8528 Fit       0.007233
 8529 Fit       0.006257
 8530 Fit       0.005043
 8531 Fit       0.003531
 8532 Fit       0.001727
 8533 Fit      -0.000260
 8534 Fit       0.007814
 8535 Fit       0.006772
 8536 Fit       0.005666
 8537 Fit       0.004391
 8538 Fit       0.002863
 8539 Fit       0.001054
 8540 Fit       0.005311
 8541 Fit       0.003938
 8542 Fit       0.002358
 8543 Fit       0.000508
 8544 Fit       0.003981
 8545 Fit       0.002234
 8546 Fit       0.000206
 8547 Fit      -0.002132
 8548 Fit       0.001164
 8549 Fit      -0.001144
 8550 Fit      -0.001176
 8551 Fit      -0.009054
 8552 Fit      -0.007140
 8553 Fit      -0.005695
 8554 Fit      -0.005098
 8555 Fit      -0.005046
 8556 Fit      -0.005408
 8557 Fit      -0.002082
 8558 Fit      -0.001839
 8559 Fit      -0.001868
 8560 Fit      -0.002109
 8561 Fit      -0.002532
 8562 Fit      -0.003112
 8563 Fit      -0.003830
 8564 Fit       0.001911
 8565 Fit       0.001391
 8566 Fit       0.000955
 8567 Fit       0.000520
 8568 Fit       0.000044
 8569 Fit      -0.000480
 8570 Fit      -0.001031
 8571 Fit      -0.001561
 8572 Fit       0.005753
 8573 Fit       0.004389
 8574 Fit       0.003481
 8575 Fit       0.002787
 8576 Fit       0.002186
 8577 Fit       0.001623
 8578 Fit       0.001094
 8579 Fit       0.000638
 8580 Fit       0.000345
 8581 Fit       0.007640
 8582 Fit       0.006051
 8583 Fit       0.004968
 8584 Fit       0.004145
 8585 Fit       0.003459
 8586 Fit       0.002855
 8587 Fit       0.002334
 8588 Fit       0.001946
 8589 Fit       0.001811
 8590 Fit       0.010057
 8591 Fit       0.007915
 8592 Fit       0.006491
 8593 Fit       0.005453
 8594 Fit       0.004627
 8595 Fit       0.003928
 8596 Fit       0.003335
 8597 Fit       0.002886
 8598 Fit       0.002692
 8599 Fit       0.012974
 8600 Fit       0.009995
 8601 Fit       0.008052
 8602 Fit       0.006693
 8603 Fit       0.005658
 8604 Fit       0.004809
 8605 Fit       0.004085
 8606 Fit       0.003488
 8607 Fit       0.003087
 8608 Fit       0.003040
 8609 Fit       0.011538
 8610 Fit       0.009239
 8611 Fit       0.007609
 8612 Fit       0.006382
 8613 Fit       0.005389
 8614 Fit       0.004535
 8615 Fit       0.003785
 8616 Fit       0.003156
 8617 Fit       0.002716
 8618 Fit       0.011349
 8619 Fit       0.009201
 8620 Fit       0.007549
 8621 Fit       0.006250
 8622 Fit       0.005163
 8623 Fit       0.004190
 8624 Fit       0.003285
 8625 Fit       0.002436
 8626 Fit       0.001638
 8627 Fit       0.009597
 8628 Fit       0.008241
 8629 Fit       0.006872
 8630 Fit       0.005639
 8631 Fit       0.004511
 8632 Fit       0.003420
 8633 Fit       0.002304
 8634 Fit       0.001094
 8635 Fit       0.006127
 8636 Fit       0.005722
 8637 Fit       0.004812
 8638 Fit       0.003715
 8639 Fit       0.002489
 8640 Fit       0.001073
 8641 Fit      -0.000680
 8642 Fit       0.002946
 8643 Fit       0.002655
 8644 Fit       0.001526
 8645 Fit      -0.000213
 8646 Fit      -0.000040
 8647 Fit       0.006410
 8648 Fit       0.005090
 8649 Fit       0.003243
 8650 Fit       0.001010
 8651 Fit       0.008198
 8652 Fit       0.007421
 8653 Fit       0.006419
 8654 Fit       0.005077
 8655 Fit       0.003307
 8656 Fit       0.001087
 8657 Fit       0.009395
 8658 Fit       0.008743
 8659 Fit       0.008016
 8660 Fit       0.007115
 8661 Fit       0.005946
 8662 Fit       0.004423
 8663 Fit       0.002463
 8664 Fit       0.000002
 8665 Fit      -0.002964
 8666 Fit       0.010211
 8667 Fit       0.009591
 8668 Fit       0.008961
 8669 Fit       0.008234
 8670 Fit       0.007328
 8671 Fit       0.006165
 8672 Fit       0.004667
 8673 Fit       0.002742
 8674 Fit       0.000279
 8675 Fit      -0.002848
 8676 Fit       0.010845
 8677 Fit       0.010244
 8678 Fit       0.009677
 8679 Fit       0.009069
 8680 Fit       0.008351
 8681 Fit       0.007459
 8682 Fit       0.006332
 8683 Fit       0.004901
 8684 Fit       0.003079
 8685 Fit       0.000746
 8686 Fit      -0.002275
 8687 Fit      -0.006228
 8688 Fit       0.011657
 8689 Fit       0.010970
 8690 Fit       0.010390
 8691 Fit       0.009836
 8692 Fit       0.009234
 8693 Fit       0.008522
 8694 Fit       0.007642
 8695 Fit       0.006537
 8696 Fit       0.005142
 8697 Fit       0.003368
 8698 Fit       0.001088
 8699 Fit      -0.001910
 8700 Fit      -0.005975
 8701 Fit       0.011576
 8702 Fit       0.010933
 8703 Fit       0.010379
 8704 Fit       0.009837
 8705 Fit       0.009245
 8706 Fit       0.008546
 8707 Fit       0.007691
 8708 Fit       0.006629
 8709 Fit       0.005304
 8710 Fit       0.003640
 8711 Fit       0.001520
 8712 Fit      -0.001255
 8713 Fit       0.011884
 8714 Fit       0.011169
 8715 Fit       0.010580
 8716 Fit       0.010041
 8717 Fit       0.009483
 8718 Fit       0.008851
 8719 Fit       0.008098
 8720 Fit       0.007179
 8721 Fit       0.006048
 8722 Fit       0.004650
 8723 Fit       0.002907
 8724 Fit       0.000692
 8725 Fit      -0.002227
 8726 Fit       0.011631
 8727 Fit       0.010893
 8728 Fit       0.010282
 8729 Fit       0.009711
 8730 Fit       0.009111
 8731 Fit       0.008426
 8732 Fit       0.007606
 8733 Fit       0.006605
 8734 Fit       0.005379
 8735 Fit       0.003870
 8736 Fit       0.001992
 8737 Fit      -0.000404
 8738 Fit       0.010977
 8739 Fit       0.010246
 8740 Fit       0.009610
 8741 Fit       0.008978
 8742 Fit       0.008280
 8743 Fit       0.007457
 8744 Fit       0.006461
 8745 Fit       0.005243
 8746 Fit       0.003749
 8747 Fit       0.001899
 8748 Fit       0.010139
 8749 Fit       0.009404
 8750 Fit       0.008719
 8751 Fit       0.007995
 8752 Fit       0.007162
 8753 Fit       0.006164
 8754 Fit       0.004948
 8755 Fit       0.003452
 8756 Fit       0.001586
 8757 Fit       0.008605
 8758 Fit       0.007793
 8759 Fit       0.006903
 8760 Fit       0.005847
 8761 Fit       0.004546
 8762 Fit       0.002903
 8763 Fit       0.006595
 8764 Fit       0.005455
 8765 Fit       0.004037
 8766 Fit       0.002238
 8767 Fit       0.002437
 8768 Fit       0.003789
 8769 Fit       0.003616
 8770 Fit       0.001978
 8771 Fit       0.000407
 8772 Fit       0.000709
 8773 Fit       0.002542
 8774 Fit       0.004128
 8775 Fit       0.005120
 8776 Fit       0.005396
 8777 Fit       0.004907
 8778 Fit       0.003635
 8779 Fit       0.001711
 8780 Fit      -0.000365
 8781 Fit      -0.001790
 8782 Fit      -0.001999
 8783 Fit      -0.001039
 8784 Fit       0.000657
 8785 Fit       0.002542
 8786 Fit       0.004192
 8787 Fit       0.005453
 8788 Fit       0.006284
 8789 Fit       0.006686
 8790 Fit       0.006661
 8791 Fit       0.006182
 8792 Fit       0.005188
 8793 Fit       0.003618
 8794 Fit       0.001514
 8795 Fit      -0.000867
 8796 Fit      -0.003043
 8797 Fit      -0.004479
 8798 Fit      -0.004885
 8799 Fit      -0.004340
 8800 Fit      -0.003081
 8801 Fit      -0.001341
 8802 Fit       0.000625
 8803 Fit       0.002452
 8804 Fit       0.004225
 8805 Fit       0.005645
 8806 Fit       0.006705
 8807 Fit       0.007427
 8808 Fit       0.007843
 8809 Fit       0.007972
 8810 Fit       0.007807
 8811 Fit       0.007304
 8812 Fit      -0.008306
 8813 Fit      -0.008132
 8814 Fit      -0.007224
 8815 Fit      -0.005796
 8816 Fit      -0.003948
 8817 Fit      -0.001814
 8818 Fit       0.000391
 8819 Fit       0.002336
 8820 Fit       0.004283
 8821 Fit       0.005850
 8822 Fit       0.007060
 8823 Fit       0.007955
 8824 Fit       0.008585
 8825 Fit       0.008991
 8826 Fit       0.009196
 8827 Fit       0.009202
 8828 Fit      -0.012079
 8829 Fit      -0.010914
 8830 Fit      -0.009397
 8831 Fit      -0.007466
 8832 Fit      -0.005115
 8833 Fit      -0.002526
 8834 Fit       0.000030
 8835 Fit       0.002340
 8836 Fit       0.004431
 8837 Fit       0.006096
 8838 Fit       0.007393
 8839 Fit       0.008388
 8840 Fit       0.009142
 8841 Fit       0.009710
 8842 Fit       0.010130
 8843 Fit       0.010427
 8844 Fit      -0.003190
 8845 Fit      -0.000216
 8846 Fit       0.005037
 8847 Fit       0.006762
 8848 Fit       0.008083
 8849 Fit       0.009098
 8850 Fit       0.009891
 8851 Fit       0.010527
 8852 Fit       0.011056
 8853 Fit       0.007940
 8854 Fit       0.009100
 8855 Fit       0.010007
 8856 Fit       0.010747
 8857 Fit       0.011385
 8858 Fit       0.010752
 8859 Fit       0.011351
 8860 Fit       0.011915
 8861 Fit       0.014350
 8862 Fit       0.013584
 8863 Fit       0.013184
 8864 Fit       0.012984
 8865 Fit       0.012896
 8866 Fit       0.012875
 8867 Fit       0.014418
 8868 Fit       0.013461
 8869 Fit       0.012911
 8870 Fit       0.012586
 8871 Fit       0.012382
 8872 Fit       0.012240
 8873 Fit       0.012131
 8874 Fit       0.012046
 8875 Fit       0.014082
 8876 Fit       0.013076
 8877 Fit       0.012480
 8878 Fit       0.012103
 8879 Fit       0.011834
 8880 Fit       0.011610
 8881 Fit       0.011399
 8882 Fit       0.011184
 8883 Fit       0.010964
 8884 Fit       0.013195
 8885 Fit       0.012346
 8886 Fit       0.011820
 8887 Fit       0.011456
 8888 Fit       0.011157
 8889 Fit       0.010869
 8890 Fit       0.010560
 8891 Fit       0.010212
 8892 Fit       0.009813
 8893 Fit       0.011880
 8894 Fit       0.011351
 8895 Fit       0.010975
 8896 Fit       0.010663
 8897 Fit       0.010354
 8898 Fit       0.010009
 8899 Fit       0.009603
 8900 Fit       0.009115
 8901 Fit       0.008522
 8902 Fit       0.010385
 8903 Fit       0.010285
 8904 Fit       0.010101
 8905 Fit       0.009874
 8906 Fit       0.009585
 8907 Fit       0.009208
 8908 Fit       0.008719
 8909 Fit       0.008096
 8910 Fit       0.007305
 8911 Fit       0.006290
 8912 Fit       0.005160
 8913 Fit       0.007475
 8914 Fit       0.008448
 8915 Fit       0.008785
 8916 Fit       0.008810
 8917 Fit       0.008629
 8918 Fit       0.008265
 8919 Fit       0.007715
 8920 Fit       0.006959
 8921 Fit       0.005960
 8922 Fit       0.004654
 8923 Fit       0.003316
 8924 Fit       0.005756
 8925 Fit       0.006961
 8926 Fit       0.007408
 8927 Fit       0.007381
 8928 Fit       0.006992
 8929 Fit       0.006275
 8930 Fit       0.005216
 8931 Fit       0.003774
 8932 Fit       0.001900
 8933 Fit       0.002421
 8934 Fit       0.004753
 8935 Fit       0.005772
 8936 Fit       0.005820
 8937 Fit       0.005137
 8938 Fit       0.003816
 8939 Fit       0.001915
 8940 Fit      -0.000371
 8941 Fit      -0.002556
 8942 Fit      -0.003951
 8943 Fit      -0.003569
 8944 Fit      -0.000936
 8945 Fit       0.002053
 8946 Fit       0.003941
 8947 Fit       0.003731
 8948 Fit       0.001922
 8949 Fit      -0.000219
 8950 Fit      -0.000405
 8951 Fit       0.001940
 -----------------------------------------------------------------
 Leave Link  602 at Fri Nov 11 10:22:45 2022, MaxMem=  4294967296 cpu:               4.9 elap:               0.7

 Test job not archived.
 1\1\GINC-NODE10\SP\RHF\6-31G(d)\C14H16N2O2\GOST\11-Nov-2022\0\\# HF 6-
 31G* scf=nosymm test pop=MK iop(6/33=2) iop(6/42=6) geom=distance\\ESP
  of conformer 1\\0,1\C,0,-1.765252,0.616279,0.142487\C,0,-0.760917,-0.
 28719,-0.267593\C,0,-3.104019,0.23982,0.175358\C,0,-3.498881,-1.068028
 ,-0.199915\C,0,-1.15835,-1.578093,-0.641116\C,0,-2.501238,-1.959002,-0
 .606344\C,0,0.662937,0.128425,-0.303139\C,0,1.696112,-0.784453,-0.0201
 94\C,0,1.042555,1.443353,-0.627078\C,0,2.380218,1.830451,-0.669483\C,0
 ,3.031737,-0.403455,-0.061187\C,0,3.407314,0.917036,-0.385634\N,0,-4.8
 43186,-1.437662,-0.093061\O,0,4.034555,-1.331873,0.181102\C,0,4.394693
 ,-1.455071,1.564244\N,0,4.755173,1.279135,-0.366879\H,0,-1.481273,1.61
 2999,0.459381\H,0,-0.419087,-2.291983,-0.992409\H,0,1.468059,-1.811656
 ,0.249775\H,0,0.280673,2.174389,-0.882739\H,0,2.639171,2.852485,-0.936
 703\H,0,-5.479632,-0.651505,-0.164159\H,0,-5.114916,-2.186062,-0.72092
 \H,0,5.194151,-2.197875,1.612013\H,0,4.757316,-0.501086,1.965597\H,0,3
 .541169,-1.79766,2.1618\H,0,5.375349,0.493011,-0.530025\H,0,4.98646,2.
 062358,-0.967673\O,0,-4.139878,1.053011,0.562335\C,0,-3.84772,2.405778
 ,0.895275\H,0,-2.786535,-2.963781,-0.909837\H,0,-4.806205,2.87019,1.13
 2212\H,0,-3.187496,2.468595,1.76899\H,0,-3.383671,2.933056,0.052699\\V
 ersion=EM64L-G16RevC.01\State=1-A\HF=-798.0607718\RMSD=7.764e-09\Dipol
 e=0.1284166,0.7184026,-0.2983091\Quadrupole=4.810699,2.6188105,-7.4295
 094,-1.454933,4.1895283,-0.1567853\PG=C01 [X(C14H16N2O2)]\\@


 The impersonal hand of government can
 never replace the helping hand of a neighbor.
                        -- Hubert H. Humphrey
 Job cpu time:       0 days  0 hours  4 minutes 27.6 seconds.
 Elapsed time:       0 days  0 hours  0 minutes 34.1 seconds.
 File lengths (MBytes):  RWF=     54 Int=      0 D2E=      0 Chk=      7 Scr=      1
 Normal termination of Gaussian 16 at Fri Nov 11 10:22:46 2022.
