 Entering Gaussian System, Link 0=g16
 Input=Conformes_3_MM_water.gjf
 Output=Conformes_3_MM_water.log
 Initial command:
 /home/Programs/g16_gost/l1.exe "/storage/users/gostb/Gau-7801.inp" -scrdir="/storage/users/gostb/"
 Entering Link 1 = /home/Programs/g16_gost/l1.exe PID=      7802.
  
 Copyright (c) 1988-2019, Gaussian, Inc.  All Rights Reserved.
  
 This is part of the Gaussian(R) 16 program.  It is based on
 the Gaussian(R) 09 system (copyright 2009, Gaussian, Inc.),
 the Gaussian(R) 03 system (copyright 2003, Gaussian, Inc.),
 the Gaussian(R) 98 system (copyright 1998, Gaussian, Inc.),
 the Gaussian(R) 94 system (copyright 1995, Gaussian, Inc.),
 the Gaussian 92(TM) system (copyright 1992, Gaussian, Inc.),
 the Gaussian 90(TM) system (copyright 1990, Gaussian, Inc.),
 the Gaussian 88(TM) system (copyright 1988, Gaussian, Inc.),
 the Gaussian 86(TM) system (copyright 1986, Carnegie Mellon
 University), and the Gaussian 82(TM) system (copyright 1983,
 Carnegie Mellon University). Gaussian is a federally registered
 trademark of Gaussian, Inc.
  
 This software contains proprietary and confidential information,
 including trade secrets, belonging to Gaussian, Inc.
  
 This software is provided under written license and may be
 used, copied, transmitted, or stored only in accord with that
 written license.
  
 The following legend is applicable only to US Government
 contracts under FAR:
  
                    RESTRICTED RIGHTS LEGEND
  
 Use, reproduction and disclosure by the US Government is
 subject to restrictions as set forth in subparagraphs (a)
 and (c) of the Commercial Computer Software - Restricted
 Rights clause in FAR 52.227-19.
  
 Gaussian, Inc.
 340 Quinnipiac St., Bldg. 40, Wallingford CT 06492
  
  
 ---------------------------------------------------------------
 Warning -- This program may not be used in any manner that
 competes with the business of Gaussian, Inc. or will provide
 assistance to any competitor of Gaussian, Inc.  The licensee
 of this program is prohibited from giving any competitor of
 Gaussian, Inc. access to this program.  By using this program,
 the user acknowledges that Gaussian, Inc. is engaged in the
 business of creating and licensing software in the field of
 computational chemistry and represents and warrants to the
 licensee that it is not a competitor of Gaussian, Inc. and that
 it will not use this program in any manner prohibited above.
 ---------------------------------------------------------------
  

 Cite this work as:
 Gaussian 16, Revision C.01,
 M. J. Frisch, G. W. Trucks, H. B. Schlegel, G. E. Scuseria, 
 M. A. Robb, J. R. Cheeseman, G. Scalmani, V. Barone, 
 G. A. Petersson, H. Nakatsuji, X. Li, M. Caricato, A. V. Marenich, 
 J. Bloino, B. G. Janesko, R. Gomperts, B. Mennucci, H. P. Hratchian, 
 J. V. Ortiz, A. F. Izmaylov, J. L. Sonnenberg, D. Williams-Young, 
 F. Ding, F. Lipparini, F. Egidi, J. Goings, B. Peng, A. Petrone, 
 T. Henderson, D. Ranasinghe, V. G. Zakrzewski, J. Gao, N. Rega, 
 G. Zheng, W. Liang, M. Hada, M. Ehara, K. Toyota, R. Fukuda, 
 J. Hasegawa, M. Ishida, T. Nakajima, Y. Honda, O. Kitao, H. Nakai, 
 T. Vreven, K. Throssell, J. A. Montgomery, Jr., J. E. Peralta, 
 F. Ogliaro, M. J. Bearpark, J. J. Heyd, E. N. Brothers, K. N. Kudin, 
 V. N. Staroverov, T. A. Keith, R. Kobayashi, J. Normand, 
 K. Raghavachari, A. P. Rendell, J. C. Burant, S. S. Iyengar, 
 J. Tomasi, M. Cossi, J. M. Millam, M. Klene, C. Adamo, R. Cammi, 
 J. W. Ochterski, R. L. Martin, K. Morokuma, O. Farkas, 
 J. B. Foresman, and D. J. Fox, Gaussian, Inc., Wallingford CT, 2019.
 
 ******************************************
 Gaussian 16:  EM64L-G16RevC.01  3-Jul-2019
                28-Oct-2022 
 ******************************************
 %chk=Conformes_3_MM_water.chk
 %mem=32gb
 %nprocshared=8
 Will use up to    8 processors via shared memory.
 -------------------------------------------------
 # b3lyp 6-31g(d) opt freq scrf(pcm,solvent=water)
 -------------------------------------------------
 1/18=20,19=15,26=3,38=1/1,3;
 2/9=110,12=2,17=6,18=5,40=1/2;
 3/5=1,6=6,7=1,11=2,25=1,30=1,70=2201,71=1,72=1,74=-5/1,2,3;
 4//1;
 5/5=2,38=5,53=1/2;
 6/7=2,8=2,9=2,10=2,28=1/1;
 7//1,2,3,16;
 1/18=20,19=15,26=3/3(2);
 2/9=110/2;
 99//99;
 2/9=110/2;
 3/5=1,6=6,7=1,11=2,25=1,30=1,70=2205,71=1,72=1,74=-5/1,2,3;
 4/5=5,16=3,69=1/1;
 5/5=2,38=5,53=1/2;
 7//1,2,3,16;
 1/18=20,19=15,26=3/3(-5);
 2/9=110/2;
 6/7=2,8=2,9=2,10=2,19=2,28=1/1;
 99/9=1/99;
 ------------------------
 conformer 3 optimization
 ------------------------
 Symbolic Z-matrix:
 Charge =  0 Multiplicity = 1
 C                     0.0534   -0.5103    1.4113 
 C                    -0.6007    0.3272    0.4941 
 C                    -0.2492   -0.5505    2.7786 
 C                    -1.3865    0.1438    3.1997 
 C                    -1.6608    1.0939    0.9996 
 C                    -2.0734    0.9849    2.3274 
 C                    -0.2493    0.3856   -0.8712 
 C                     0.4034   -0.67     -1.5277 
 C                    -0.5311    1.5198   -1.6473 
 C                    -0.121     1.611    -2.9768 
 C                     0.7034   -0.6674   -2.8966 
 C                     0.5131    0.5326   -3.5871 
 N                    -1.7958    0.0525    4.4762 
 O                     1.3531   -1.7234   -3.4678 
 C                     0.4962   -2.6113   -4.1477 
 N                     0.8852    0.6454   -4.873 
 H                     0.8827   -1.1589    1.0908 
 H                    -2.2708    1.7393    0.3496 
 H                     0.6666   -1.5929   -0.9877 
 H                    -1.0065    2.4171   -1.2211 
 H                    -0.2941    2.5403   -3.5432 
 H                    -1.2494   -0.5615    5.0766 
 H                    -2.616     0.6056    4.7139 
 H                     1.1108   -3.4752   -4.4869 
 H                    -0.3001   -2.9672   -3.454 
 H                     0.0563   -2.0962   -5.0327 
 H                     1.3341   -0.176    -5.2718 
 H                     0.6982    1.5496   -5.3009 
 O                     0.4007   -1.4113    3.6149 
 C                     1.4392   -0.8188    4.3584 
 H                    -2.9507    1.555     2.6787 
 H                     1.88     -1.6174    4.9966 
 H                     2.2147   -0.4218    3.6628 
 H                     1.023    -0.0113    5.0048 
 

 GradGradGradGradGradGradGradGradGradGradGradGradGradGradGradGradGradGrad
 Berny optimization.
 Initialization pass.
                           ----------------------------
                           !    Initial Parameters    !
                           ! (Angstroms and Degrees)  !
 --------------------------                            --------------------------
 ! Name  Definition              Value          Derivative Info.                !
 --------------------------------------------------------------------------------
 ! R1    R(1,2)                  1.4037         estimate D2E/DX2                !
 ! R2    R(1,3)                  1.401          estimate D2E/DX2                !
 ! R3    R(1,17)                 1.1005         estimate D2E/DX2                !
 ! R4    R(2,5)                  1.4026         estimate D2E/DX2                !
 ! R5    R(2,7)                  1.411          estimate D2E/DX2                !
 ! R6    R(3,4)                  1.3974         estimate D2E/DX2                !
 ! R7    R(3,29)                 1.3648         estimate D2E/DX2                !
 ! R8    R(4,6)                  1.3929         estimate D2E/DX2                !
 ! R9    R(4,13)                 1.3436         estimate D2E/DX2                !
 ! R10   R(5,6)                  1.3947         estimate D2E/DX2                !
 ! R11   R(5,18)                 1.1005         estimate D2E/DX2                !
 ! R12   R(6,31)                 1.1037         estimate D2E/DX2                !
 ! R13   R(7,8)                  1.404          estimate D2E/DX2                !
 ! R14   R(7,9)                  1.4029         estimate D2E/DX2                !
 ! R15   R(8,11)                 1.4014         estimate D2E/DX2                !
 ! R16   R(8,19)                 1.1012         estimate D2E/DX2                !
 ! R17   R(9,10)                 1.3943         estimate D2E/DX2                !
 ! R18   R(9,20)                 1.1013         estimate D2E/DX2                !
 ! R19   R(10,12)                1.3919         estimate D2E/DX2                !
 ! R20   R(10,21)                1.102          estimate D2E/DX2                !
 ! R21   R(11,12)                1.3975         estimate D2E/DX2                !
 ! R22   R(11,14)                1.3651         estimate D2E/DX2                !
 ! R23   R(12,16)                1.3434         estimate D2E/DX2                !
 ! R24   R(13,22)                1.0179         estimate D2E/DX2                !
 ! R25   R(13,23)                1.0174         estimate D2E/DX2                !
 ! R26   R(14,15)                1.4089         estimate D2E/DX2                !
 ! R27   R(15,24)                1.1132         estimate D2E/DX2                !
 ! R28   R(15,25)                1.1144         estimate D2E/DX2                !
 ! R29   R(15,26)                1.1145         estimate D2E/DX2                !
 ! R30   R(16,27)                1.0175         estimate D2E/DX2                !
 ! R31   R(16,28)                1.0177         estimate D2E/DX2                !
 ! R32   R(29,30)                1.408          estimate D2E/DX2                !
 ! R33   R(30,32)                1.1133         estimate D2E/DX2                !
 ! R34   R(30,33)                1.1148         estimate D2E/DX2                !
 ! R35   R(30,34)                1.1149         estimate D2E/DX2                !
 ! A1    A(2,1,3)              123.6534         estimate D2E/DX2                !
 ! A2    A(2,1,17)             120.8283         estimate D2E/DX2                !
 ! A3    A(3,1,17)             115.4727         estimate D2E/DX2                !
 ! A4    A(1,2,5)              116.2851         estimate D2E/DX2                !
 ! A5    A(1,2,7)              122.7433         estimate D2E/DX2                !
 ! A6    A(5,2,7)              120.9538         estimate D2E/DX2                !
 ! A7    A(1,3,4)              117.1053         estimate D2E/DX2                !
 ! A8    A(1,3,29)             120.8823         estimate D2E/DX2                !
 ! A9    A(4,3,29)             121.081          estimate D2E/DX2                !
 ! A10   A(3,4,6)              120.8401         estimate D2E/DX2                !
 ! A11   A(3,4,13)             120.0292         estimate D2E/DX2                !
 ! A12   A(6,4,13)             119.0629         estimate D2E/DX2                !
 ! A13   A(2,5,6)              121.6014         estimate D2E/DX2                !
 ! A14   A(2,5,18)             121.7797         estimate D2E/DX2                !
 ! A15   A(6,5,18)             116.3695         estimate D2E/DX2                !
 ! A16   A(4,6,5)              119.8355         estimate D2E/DX2                !
 ! A17   A(4,6,31)             120.3033         estimate D2E/DX2                !
 ! A18   A(5,6,31)             119.8561         estimate D2E/DX2                !
 ! A19   A(2,7,8)              122.4859         estimate D2E/DX2                !
 ! A20   A(2,7,9)              121.2468         estimate D2E/DX2                !
 ! A21   A(8,7,9)              116.2661         estimate D2E/DX2                !
 ! A22   A(7,8,11)             123.7014         estimate D2E/DX2                !
 ! A23   A(7,8,19)             120.7923         estimate D2E/DX2                !
 ! A24   A(11,8,19)            115.4294         estimate D2E/DX2                !
 ! A25   A(7,9,10)             121.4194         estimate D2E/DX2                !
 ! A26   A(7,9,20)             122.096          estimate D2E/DX2                !
 ! A27   A(10,9,20)            116.276          estimate D2E/DX2                !
 ! A28   A(9,10,12)            120.092          estimate D2E/DX2                !
 ! A29   A(9,10,21)            119.9373         estimate D2E/DX2                !
 ! A30   A(12,10,21)           119.9697         estimate D2E/DX2                !
 ! A31   A(8,11,12)            117.0703         estimate D2E/DX2                !
 ! A32   A(8,11,14)            120.6091         estimate D2E/DX2                !
 ! A33   A(12,11,14)           121.4872         estimate D2E/DX2                !
 ! A34   A(10,12,11)           120.7072         estimate D2E/DX2                !
 ! A35   A(10,12,16)           118.7386         estimate D2E/DX2                !
 ! A36   A(11,12,16)           120.4862         estimate D2E/DX2                !
 ! A37   A(4,13,22)            115.9677         estimate D2E/DX2                !
 ! A38   A(4,13,23)            115.5052         estimate D2E/DX2                !
 ! A39   A(22,13,23)           128.5266         estimate D2E/DX2                !
 ! A40   A(11,14,15)           113.5766         estimate D2E/DX2                !
 ! A41   A(14,15,24)           107.4784         estimate D2E/DX2                !
 ! A42   A(14,15,25)           109.6005         estimate D2E/DX2                !
 ! A43   A(14,15,26)           109.3907         estimate D2E/DX2                !
 ! A44   A(24,15,25)           109.6542         estimate D2E/DX2                !
 ! A45   A(24,15,26)           109.5514         estimate D2E/DX2                !
 ! A46   A(25,15,26)           111.0917         estimate D2E/DX2                !
 ! A47   A(12,16,27)           115.4417         estimate D2E/DX2                !
 ! A48   A(12,16,28)           115.2255         estimate D2E/DX2                !
 ! A49   A(27,16,28)           129.3125         estimate D2E/DX2                !
 ! A50   A(3,29,30)            114.1665         estimate D2E/DX2                !
 ! A51   A(29,30,32)           107.0317         estimate D2E/DX2                !
 ! A52   A(29,30,33)           109.4784         estimate D2E/DX2                !
 ! A53   A(29,30,34)           109.6088         estimate D2E/DX2                !
 ! A54   A(32,30,33)           109.7373         estimate D2E/DX2                !
 ! A55   A(32,30,34)           109.5717         estimate D2E/DX2                !
 ! A56   A(33,30,34)           111.315          estimate D2E/DX2                !
 ! D1    D(3,1,2,5)             -3.7588         estimate D2E/DX2                !
 ! D2    D(3,1,2,7)            177.759          estimate D2E/DX2                !
 ! D3    D(17,1,2,5)           178.8095         estimate D2E/DX2                !
 ! D4    D(17,1,2,7)             0.3273         estimate D2E/DX2                !
 ! D5    D(2,1,3,4)              9.2966         estimate D2E/DX2                !
 ! D6    D(2,1,3,29)           178.3686         estimate D2E/DX2                !
 ! D7    D(17,1,3,4)          -173.1462         estimate D2E/DX2                !
 ! D8    D(17,1,3,29)           -4.0743         estimate D2E/DX2                !
 ! D9    D(1,2,5,6)             -2.5658         estimate D2E/DX2                !
 ! D10   D(1,2,5,18)          -176.6192         estimate D2E/DX2                !
 ! D11   D(7,2,5,6)            175.9456         estimate D2E/DX2                !
 ! D12   D(7,2,5,18)             1.8922         estimate D2E/DX2                !
 ! D13   D(1,2,7,8)             23.5978         estimate D2E/DX2                !
 ! D14   D(1,2,7,9)           -155.983          estimate D2E/DX2                !
 ! D15   D(5,2,7,8)           -154.8153         estimate D2E/DX2                !
 ! D16   D(5,2,7,9)             25.6039         estimate D2E/DX2                !
 ! D17   D(1,3,4,6)             -8.6621         estimate D2E/DX2                !
 ! D18   D(1,3,4,13)           174.3588         estimate D2E/DX2                !
 ! D19   D(29,3,4,6)          -177.711          estimate D2E/DX2                !
 ! D20   D(29,3,4,13)            5.3099         estimate D2E/DX2                !
 ! D21   D(1,3,29,30)           99.8435         estimate D2E/DX2                !
 ! D22   D(4,3,29,30)          -91.5205         estimate D2E/DX2                !
 ! D23   D(3,4,6,5)              2.8693         estimate D2E/DX2                !
 ! D24   D(3,4,6,31)          -177.9512         estimate D2E/DX2                !
 ! D25   D(13,4,6,5)           179.8772         estimate D2E/DX2                !
 ! D26   D(13,4,6,31)           -0.9433         estimate D2E/DX2                !
 ! D27   D(3,4,13,22)           -1.8231         estimate D2E/DX2                !
 ! D28   D(3,4,13,23)          178.4102         estimate D2E/DX2                !
 ! D29   D(6,4,13,22)         -178.8558         estimate D2E/DX2                !
 ! D30   D(6,4,13,23)            1.3775         estimate D2E/DX2                !
 ! D31   D(2,5,6,4)              3.0001         estimate D2E/DX2                !
 ! D32   D(2,5,6,31)          -176.1831         estimate D2E/DX2                !
 ! D33   D(18,5,6,4)           177.359          estimate D2E/DX2                !
 ! D34   D(18,5,6,31)           -1.8242         estimate D2E/DX2                !
 ! D35   D(2,7,8,11)           176.6345         estimate D2E/DX2                !
 ! D36   D(2,7,8,19)            -0.0286         estimate D2E/DX2                !
 ! D37   D(9,7,8,11)            -3.7651         estimate D2E/DX2                !
 ! D38   D(9,7,8,19)           179.5718         estimate D2E/DX2                !
 ! D39   D(2,7,9,10)           176.4507         estimate D2E/DX2                !
 ! D40   D(2,7,9,20)             1.8946         estimate D2E/DX2                !
 ! D41   D(8,7,9,10)            -3.155          estimate D2E/DX2                !
 ! D42   D(8,7,9,20)          -177.7111         estimate D2E/DX2                !
 ! D43   D(7,8,11,12)            9.628          estimate D2E/DX2                !
 ! D44   D(7,8,11,14)          179.3285         estimate D2E/DX2                !
 ! D45   D(19,8,11,12)        -173.5458         estimate D2E/DX2                !
 ! D46   D(19,8,11,14)          -3.8453         estimate D2E/DX2                !
 ! D47   D(7,9,10,12)            3.8654         estimate D2E/DX2                !
 ! D48   D(7,9,10,21)         -175.785          estimate D2E/DX2                !
 ! D49   D(20,9,10,12)         178.723          estimate D2E/DX2                !
 ! D50   D(20,9,10,21)          -0.9274         estimate D2E/DX2                !
 ! D51   D(9,10,12,11)           2.3453         estimate D2E/DX2                !
 ! D52   D(9,10,12,16)         179.363          estimate D2E/DX2                !
 ! D53   D(21,10,12,11)       -178.0045         estimate D2E/DX2                !
 ! D54   D(21,10,12,16)         -0.9867         estimate D2E/DX2                !
 ! D55   D(8,11,12,10)          -8.7131         estimate D2E/DX2                !
 ! D56   D(8,11,12,16)         174.3214         estimate D2E/DX2                !
 ! D57   D(14,11,12,10)       -178.3171         estimate D2E/DX2                !
 ! D58   D(14,11,12,16)          4.7174         estimate D2E/DX2                !
 ! D59   D(8,11,14,15)          99.955          estimate D2E/DX2                !
 ! D60   D(12,11,14,15)        -90.805          estimate D2E/DX2                !
 ! D61   D(10,12,16,27)       -179.3009         estimate D2E/DX2                !
 ! D62   D(10,12,16,28)          2.1808         estimate D2E/DX2                !
 ! D63   D(11,12,16,27)         -2.2764         estimate D2E/DX2                !
 ! D64   D(11,12,16,28)        179.2053         estimate D2E/DX2                !
 ! D65   D(11,14,15,24)       -174.7183         estimate D2E/DX2                !
 ! D66   D(11,14,15,25)        -55.6114         estimate D2E/DX2                !
 ! D67   D(11,14,15,26)         66.4146         estimate D2E/DX2                !
 ! D68   D(3,29,30,32)         179.7535         estimate D2E/DX2                !
 ! D69   D(3,29,30,33)         -61.3656         estimate D2E/DX2                !
 ! D70   D(3,29,30,34)          60.9991         estimate D2E/DX2                !
 --------------------------------------------------------------------------------
 Trust Radius=3.00D-01 FncErr=1.00D-07 GrdErr=1.00D-06 EigMax=2.50D+02 EigMin=1.00D-04
 Number of steps in this run=    171 maximum allowed number of steps=    204.
 GradGradGradGradGradGradGradGradGradGradGradGradGradGradGradGradGradGrad

                          Input orientation:                          
 ---------------------------------------------------------------------
 Center     Atomic      Atomic             Coordinates (Angstroms)
 Number     Number       Type             X           Y           Z
 ---------------------------------------------------------------------
      1          6           0        0.053400   -0.510300    1.411300
      2          6           0       -0.600700    0.327200    0.494100
      3          6           0       -0.249200   -0.550500    2.778600
      4          6           0       -1.386500    0.143800    3.199700
      5          6           0       -1.660800    1.093900    0.999600
      6          6           0       -2.073400    0.984900    2.327400
      7          6           0       -0.249300    0.385600   -0.871200
      8          6           0        0.403400   -0.670000   -1.527700
      9          6           0       -0.531100    1.519800   -1.647300
     10          6           0       -0.121000    1.611000   -2.976800
     11          6           0        0.703400   -0.667400   -2.896600
     12          6           0        0.513100    0.532600   -3.587100
     13          7           0       -1.795800    0.052500    4.476200
     14          8           0        1.353100   -1.723400   -3.467800
     15          6           0        0.496200   -2.611300   -4.147700
     16          7           0        0.885200    0.645400   -4.873000
     17          1           0        0.882700   -1.158900    1.090800
     18          1           0       -2.270800    1.739300    0.349600
     19          1           0        0.666600   -1.592900   -0.987700
     20          1           0       -1.006500    2.417100   -1.221100
     21          1           0       -0.294100    2.540300   -3.543200
     22          1           0       -1.249400   -0.561500    5.076600
     23          1           0       -2.616000    0.605600    4.713900
     24          1           0        1.110800   -3.475200   -4.486900
     25          1           0       -0.300100   -2.967200   -3.454000
     26          1           0        0.056300   -2.096200   -5.032700
     27          1           0        1.334100   -0.176000   -5.271800
     28          1           0        0.698200    1.549600   -5.300900
     29          8           0        0.400700   -1.411300    3.614900
     30          6           0        1.439200   -0.818800    4.358400
     31          1           0       -2.950700    1.555000    2.678700
     32          1           0        1.880000   -1.617400    4.996600
     33          1           0        2.214700   -0.421800    3.662800
     34          1           0        1.023000   -0.011300    5.004800
 ---------------------------------------------------------------------
                    Distance matrix (angstroms):
                    1          2          3          4          5
     1  C    0.000000
     2  C    1.403748   0.000000
     3  C    1.400961   2.472418   0.000000
     4  C    2.387370   2.823365   1.397437   0.000000
     5  C    2.383576   1.402559   2.803838   2.412130   0.000000
     6  C    2.756472   2.441803   2.426673   1.392906   1.394694
     7  C    2.470642   1.411006   3.767934   4.233665   2.448247
     8  C    2.964072   2.467853   4.357108   5.119993   3.709381
     9  C    3.717254   2.452087   4.894303   5.110626   2.909243
    10  C    4.877064   3.731675   6.149240   6.473277   4.295362
    11  C    4.359493   3.766531   5.755780   6.495429   4.885897
    12  C    5.126692   4.235438   6.502026   7.058350   5.106732
    13  N    3.623520   4.166635   2.374326   1.343620   3.631733
    14  O    5.192923   4.870210   6.554432   7.446301   6.080990
    15  C    5.959258   5.602167   7.264720   8.069661   6.698944
    16  N    6.443598   5.578074   7.827134   8.401233   6.416440
    17  H    1.100518   2.182892   2.121324   3.360618   3.398944
    18  H    3.404381   2.191835   3.902575   3.383885   1.100519
    19  H    2.702450   2.736524   4.013764   4.976511   4.072474
    20  H    4.077081   2.733911   5.037634   4.985556   2.666547
    21  H    5.828721   4.614283   7.037060   7.239009   4.959534
    22  H    3.890287   4.712739   2.506257   2.009726   4.419449
    23  H    4.390683   4.684619   3.268592   2.004428   3.866118
    24  H    6.685618   6.495986   7.949274   8.855365   7.658990
    25  H    5.461910   5.150818   6.684933   7.424979   6.178883
    26  H    6.636281   6.070423   7.968621   8.652842   7.036605
    27  H    6.812912   6.102644   8.213162   8.903384   7.064880
    28  H    7.050715   6.063285   8.401566   8.864674   6.743059
    29  O    2.405883   3.710064   1.364824   2.405163   4.167206
    30  C    3.271240   4.517446   2.327756   3.202150   4.954791
    31  H    3.859583   3.435472   3.426545   2.170172   2.166987
    32  H    4.173310   5.496167   3.254427   4.123190   5.988691
    33  H    3.122227   4.304432   2.620911   3.674644   4.940595
    34  H    3.755312   4.805975   2.620152   3.014653   4.946299
                    6          7          8          9         10
     6  C    0.000000
     7  C    3.730622   0.000000
     8  C    4.871861   1.404030   0.000000
     9  C    4.296865   1.402908   2.383866   0.000000
    10  C    5.686687   2.439594   2.752789   1.394299   0.000000
    11  C    6.142547   2.473599   1.401390   2.805100   2.424288
    12  C    6.471157   2.824708   2.387344   2.414072   1.391939
    13  N    2.358765   5.576496   6.434695   6.422592   7.796223
    14  O    7.256730   3.709164   2.403241   4.169266   3.678624
    15  C    7.839797   4.502514   3.262155   4.936936   4.424902
    16  N    7.791940   4.167612   3.626767   3.629824   2.353805
    17  H    3.855332   2.741596   2.706528   4.083069   5.022462
    18  H    2.125977   2.722006   4.059597   2.657507   3.962706
    19  H    5.014234   2.183325   1.101190   3.399773   3.852507
    20  H    3.972572   2.196082   3.407640   1.101271   2.125180
    21  H    6.328438   3.432830   3.854189   2.166109   1.101985
    22  H    3.260127   6.105205   6.808840   7.075210   8.417262
    23  H    2.476624   6.069844   7.049929   6.756289   8.147559
    24  H    8.744501   5.461587   4.138409   5.975717   5.446757
    25  H    7.224145   4.232577   3.079395   4.842592   4.606486
    26  H    8.258321   4.854977   3.799941   4.988129   4.242817
    27  H    8.408721   4.710396   3.889540   4.414942   3.252339
    28  H    8.135823   4.677060   4.387547   3.854979   2.465015
    29  O    3.677037   4.876109   5.195755   6.095108   7.270280
    30  C    4.440344   5.625862   5.978394   6.739404   7.883103
    31  H    1.103667   4.611599   5.821891   4.956811   6.324161
    32  H    5.433780   6.555685   6.756064   7.732841   8.831856
    33  H    4.706368   5.223059   5.503063   6.285411   7.326122
    34  H    4.212906   6.025251   6.594797   7.000709   8.224751
                   11         12         13         14         15
    11  C    0.000000
    12  C    1.397499   0.000000
    13  N    7.818084   8.401091   0.000000
    14  O    1.365106   2.410263   8.727917   0.000000
    15  C    2.320976   3.193535   9.312397   1.408868   0.000000
    16  N    2.379633   1.343399   9.744067   2.793695   3.359089
    17  H    4.021577   4.988038   4.483613   4.617442   5.449838
    18  H    5.017558   4.970295   4.483274   6.300435   6.841763
    19  H    2.121745   3.361278   6.214898   2.576666   3.324421
    20  H    3.904510   3.385038   6.218807   5.268692   6.008985
    21  H    3.420883   2.164338   8.529656   4.571443   5.246806
    22  H    8.209541   8.908600   1.017855   9.007208   9.609189
    23  H    8.399920   8.871482   1.017423   9.387130   9.927849
    24  H    3.252502   4.150825  10.061320   2.041097   1.113155
    25  H    2.570367   3.595499   8.616483   2.068888   1.114441
    26  H    2.650119   3.034636   9.923022   2.066297   1.114480
    27  H    2.506159   2.003589  10.240703   2.376810   2.810047
    28  H    3.270440   2.001415  10.200639   3.808107   4.322472
    29  O    6.560842   7.460575   2.776537   7.153259   7.855385
    30  C    7.293788   8.112639   3.352352   7.878777   8.743915
    31  H    7.026769   7.232113   2.611955   8.188410   8.708554
    32  H    8.036759   8.953816   4.070736   8.481446   9.301664
    33  H    6.735731   7.507821   4.119550   7.299450   8.291626
    34  H    7.935032   8.624185   2.868645   8.650156   9.529206
                   16         17         18         19         20
    16  N    0.000000
    17  H    6.230764   0.000000
    18  H    6.199395   4.346666   0.000000
    19  H    4.489246   2.134296   4.638992   0.000000
    20  H    4.478150   4.658512   2.127197   4.351303   0.000000
    21  H    2.598031   6.045072   4.438788   4.953470   2.432044
    22  H   10.247325   4.559533   5.355508   6.442870   6.970802
    23  H   10.206304   5.336780   4.522339   6.936650   6.410635
    24  H    4.144793   6.043841   7.875148   3.998095   7.061700
    25  H    4.058248   5.032313   6.364132   2.984266   5.871587
    26  H    2.868615   6.249698   7.006826   4.121626   6.002309
    27  H    1.017473   6.453877   6.947216   4.561433   5.348901
    28  H    1.017666   6.944339   6.385851   5.336666   4.505921
    29  O    8.746954   2.582075   5.265489   4.613850   6.326433
    30  C    9.363202   3.332052   6.031455   5.456824   6.898066
    31  H    8.518784   4.957987   2.433298   6.036276   4.442023
    32  H   10.174424   4.057105   7.077513   6.106127   7.954173
    33  H    8.704388   2.988766   5.980582   5.039369   6.502919
    34  H    9.900564   4.081184   5.965283   6.207941   6.984113
                   21         22         23         24         25
    21  H    0.000000
    22  H    9.210576   0.000000
    23  H    8.792837   1.833376   0.000000
    24  H    6.249044  10.272328  10.732972   0.000000
    25  H    5.508226   8.914017   9.211020   1.820875   0.000000
    26  H    4.882471  10.308157  10.461220   1.819755   1.837922
    27  H    3.607960  10.672978  10.767005   3.398625   3.710230
    28  H    2.248478  10.767655  10.591094   5.107000   4.980876
    29  O    8.205869   2.362532   3.791591   8.390655   7.271952
    30  C    8.759176   2.794742   4.312765   9.241409   8.287001
    31  H    6.836694   3.622695   2.270556   9.651141   8.067588
    32  H    9.743786   3.303705   5.023511   9.694321   8.831050
    33  H    8.185020   3.744107   5.049359   8.772654   7.965684
    34  H    9.017412   2.339162   3.702365  10.104389   9.057551
                   26         27         28         29         30
    26  H    0.000000
    27  H    2.318860   0.000000
    28  H    3.711580   1.839269   0.000000
    29  O    8.681514   9.020568   9.399304   0.000000
    30  C    9.577939   9.652201   9.972987   1.407953   0.000000
    31  H    9.046491   9.195995   8.774310   4.572449   5.265695
    32  H   10.204998  10.383433  10.838129   2.034675   1.113268
    33  H    9.114495   8.981256   9.302371   2.066882   1.114840
    34  H   10.297219  10.282627  10.428296   2.068594   1.114949
                   31         32         33         34
    31  H    0.000000
    32  H    6.226752   0.000000
    33  H    5.617611   1.822226   0.000000
    34  H    4.863572   1.820460   1.841093   0.000000
 Stoichiometry    C14H16N2O2
 Framework group  C1[X(C14H16N2O2)]
 Deg. of freedom    96
 Full point group                 C1      NOp   1
 Largest Abelian subgroup         C1      NOp   1
 Largest concise Abelian subgroup C1      NOp   1
                         Standard orientation:                         
 ---------------------------------------------------------------------
 Center     Atomic      Atomic             Coordinates (Angstroms)
 Number     Number       Type             X           Y           Z
 ---------------------------------------------------------------------
      1          6           0       -1.481031    0.549533   -0.096018
      2          6           0       -0.698473   -0.605140    0.061596
      3          6           0       -2.877886    0.561222    0.010520
      4          6           0       -3.490127   -0.602490    0.483557
      5          6           0       -1.383277   -1.775343    0.420539
      6          6           0       -2.757195   -1.773702    0.660369
      7          6           0        0.703797   -0.603982   -0.095165
      8          6           0        1.478941    0.556395    0.059683
      9          6           0        1.400014   -1.776093   -0.426210
     10          6           0        2.775600   -1.764760   -0.653595
     11          6           0        2.877783    0.573840   -0.022973
     12          6           0        3.502678   -0.591162   -0.476051
     13          7           0       -4.813275   -0.619083    0.716618
     14          8           0        3.568271    1.742176    0.124447
     15          6           0        4.121980    1.911284    1.408860
     16          7           0        4.828698   -0.614176   -0.690205
     17          1           0       -1.018219    1.513118   -0.357648
     18          1           0       -0.853197   -2.718703    0.621108
     19          1           0        1.008157    1.519259    0.312414
     20          1           0        0.883912   -2.732075   -0.606589
     21          1           0        3.286676   -2.684930   -0.979876
     22          1           0       -5.305237    0.257282    0.555417
     23          1           0       -5.190829   -1.508420    1.035495
     24          1           0        4.573697    2.927951    1.446995
     25          1           0        3.318060    1.829282    2.176301
     26          1           0        4.913981    1.144827    1.574212
     27          1           0        5.311870    0.267731   -0.535171
     28          1           0        5.201413   -1.506503   -1.007194
     29          8           0       -3.580761    1.723754   -0.120747
     30          6           0       -4.161808    1.905807   -1.390224
     31          1           0       -3.256348   -2.696742    1.002313
     32          1           0       -4.703891    2.877837   -1.364360
     33          1           0       -3.360230    1.942230   -2.164184
     34          1           0       -4.883827    1.080785   -1.593055
 ---------------------------------------------------------------------
 Rotational constants (GHZ):           0.9208708           0.1932792           0.1712124
 Standard basis: 6-31G(d) (6D, 7F)
 There are   302 symmetry adapted cartesian basis functions of A   symmetry.
 There are   302 symmetry adapted basis functions of A   symmetry.
   302 basis functions,   568 primitive gaussians,   302 cartesian basis functions
    65 alpha electrons       65 beta electrons
       nuclear repulsion energy      1252.0761056348 Hartrees.
 NAtoms=   34 NActive=   34 NUniq=   34 SFac= 1.00D+00 NAtFMM=   60 NAOKFM=F Big=F
 Integral buffers will be    131072 words long.
 Raffenetti 2 integral format.
 Two-electron integral symmetry is turned on.
 ------------------------------------------------------------------------------
 Polarizable Continuum Model (PCM)
 =================================
 Model                : PCM.
 Atomic radii         : UFF (Universal Force Field).
 Polarization charges : Total charges.
 Charge compensation  : None.
 Solution method      : On-the-fly selection.
 Cavity type          : Scaled VdW (van der Waals Surface) (Alpha=1.100).
 Cavity algorithm     : GePol (No added spheres)
                        Default sphere list used, NSphG=   34.
                        Lebedev-Laikov grids with approx.  5.0 points / Ang**2.
                        Smoothing algorithm: York/Karplus (Gamma=1.0000).
                        Polarization charges: spherical gaussians, with
                                              point-specific exponents (IZeta= 3).
                        Self-potential: point-specific (ISelfS= 7).
                        Self-field    : sphere-specific E.n sum rule (ISelfD= 2).
 1st derivatives      : Analytical E(r).r(x)/FMM algorithm (CHGder, D1EAlg=3).
                        Cavity 1st derivative terms included.
 Solvent              : Water, Eps=  78.355300 Eps(inf)=   1.777849
 ------------------------------------------------------------------------------
 One-electron integrals computed using PRISM.
 NBasis=   302 RedAO= T EigKep=  3.56D-04  NBF=   302
 NBsUse=   302 1.00D-06 EigRej= -1.00D+00 NBFU=   302
 ExpMin= 1.61D-01 ExpMax= 5.48D+03 ExpMxC= 8.25D+02 IAcc=3 IRadAn=         5 AccDes= 0.00D+00
 Harris functional with IExCor=  402 and IRadAn=       5 diagonalized for initial guess.
 HarFok:  IExCor=  402 AccDes= 0.00D+00 IRadAn=         5 IDoV= 1 UseB2=F ITyADJ=14
 ICtDFT=  3500011 ScaDFX=  1.000000  1.000000  1.000000  1.000000
 FoFCou: FMM=F IPFlag=           0 FMFlag=      100000 FMFlg1=           0
         NFxFlg=           0 DoJE=T BraDBF=F KetDBF=T FulRan=T
         wScrn=  0.000000 ICntrl=       500 IOpCl=  0 I1Cent=   200000004 NGrid=           0
         NMat0=    1 NMatS0=      1 NMatT0=    0 NMatD0=    1 NMtDS0=    0 NMtDT0=    0
 Petite list used in FoFCou.
 Requested convergence on RMS density matrix=1.00D-08 within 128 cycles.
 Requested convergence on MAX density matrix=1.00D-06.
 Requested convergence on             energy=1.00D-06.
 No special actions if energy rises.
 Inv3:  Mode=1 IEnd=    19233072.
 Iteration    1 A*A^-1 deviation from unit magnitude is 8.55D-15 for   2216.
 Iteration    1 A*A^-1 deviation from orthogonality  is 5.55D-15 for   1893   1681.
 Iteration    1 A^-1*A deviation from unit magnitude is 8.33D-15 for   2216.
 Iteration    1 A^-1*A deviation from orthogonality  is 3.93D-15 for   1587    943.
 Error on total polarization charges =  0.00976
 SCF Done:  E(RB3LYP) =  -803.032610445     A.U. after   13 cycles
            NFock= 13  Conv=0.23D-08     -V/T= 2.0090

 **********************************************************************

            Population analysis using the SCF Density.

 **********************************************************************

 Orbital symmetries:
       Occupied  (A) (A) (A) (A) (A) (A) (A) (A) (A) (A) (A) (A)
                 (A) (A) (A) (A) (A) (A) (A) (A) (A) (A) (A) (A)
                 (A) (A) (A) (A) (A) (A) (A) (A) (A) (A) (A) (A)
                 (A) (A) (A) (A) (A) (A) (A) (A) (A) (A) (A) (A)
                 (A) (A) (A) (A) (A) (A) (A) (A) (A) (A) (A) (A)
                 (A) (A) (A) (A) (A)
       Virtual   (A) (A) (A) (A) (A) (A) (A) (A) (A) (A) (A) (A)
                 (A) (A) (A) (A) (A) (A) (A) (A) (A) (A) (A) (A)
                 (A) (A) (A) (A) (A) (A) (A) (A) (A) (A) (A) (A)
                 (A) (A) (A) (A) (A) (A) (A) (A) (A) (A) (A) (A)
                 (A) (A) (A) (A) (A) (A) (A) (A) (A) (A) (A) (A)
                 (A) (A) (A) (A) (A) (A) (A) (A) (A) (A) (A) (A)
                 (A) (A) (A) (A) (A) (A) (A) (A) (A) (A) (A) (A)
                 (A) (A) (A) (A) (A) (A) (A) (A) (A) (A) (A) (A)
                 (A) (A) (A) (A) (A) (A) (A) (A) (A) (A) (A) (A)
                 (A) (A) (A) (A) (A) (A) (A) (A) (A) (A) (A) (A)
                 (A) (A) (A) (A) (A) (A) (A) (A) (A) (A) (A) (A)
                 (A) (A) (A) (A) (A) (A) (A) (A) (A) (A) (A) (A)
                 (A) (A) (A) (A) (A) (A) (A) (A) (A) (A) (A) (A)
                 (A) (A) (A) (A) (A) (A) (A) (A) (A) (A) (A) (A)
                 (A) (A) (A) (A) (A) (A) (A) (A) (A) (A) (A) (A)
                 (A) (A) (A) (A) (A) (A) (A) (A) (A) (A) (A) (A)
                 (A) (A) (A) (A) (A) (A) (A) (A) (A) (A) (A) (A)
                 (A) (A) (A) (A) (A) (A) (A) (A) (A) (A) (A) (A)
                 (A) (A) (A) (A) (A) (A) (A) (A) (A) (A) (A) (A)
                 (A) (A) (A) (A) (A) (A) (A) (A) (A)
 The electronic state is 1-A.
 Alpha  occ. eigenvalues --  -19.16753 -19.16732 -14.33750 -14.33733 -10.23645
 Alpha  occ. eigenvalues --  -10.23624 -10.22787 -10.22778 -10.21902 -10.21882
 Alpha  occ. eigenvalues --  -10.18195 -10.18194 -10.18188 -10.18170 -10.17950
 Alpha  occ. eigenvalues --  -10.17900 -10.17819 -10.17782  -1.06256  -1.06253
 Alpha  occ. eigenvalues --   -0.92505  -0.92440  -0.85390  -0.82066  -0.75768
 Alpha  occ. eigenvalues --   -0.74587  -0.74228  -0.69839  -0.68419  -0.67266
 Alpha  occ. eigenvalues --   -0.62588  -0.60947  -0.60583  -0.56626  -0.53972
 Alpha  occ. eigenvalues --   -0.52851  -0.52008  -0.50831  -0.50419  -0.48141
 Alpha  occ. eigenvalues --   -0.46246  -0.46231  -0.46089  -0.45623  -0.45444
 Alpha  occ. eigenvalues --   -0.43354  -0.42401  -0.41917  -0.40635  -0.38911
 Alpha  occ. eigenvalues --   -0.38076  -0.37888  -0.37007  -0.35683  -0.35258
 Alpha  occ. eigenvalues --   -0.34177  -0.33652  -0.32808  -0.29027  -0.27638
 Alpha  occ. eigenvalues --   -0.27296  -0.24133  -0.23647  -0.21187  -0.16532
 Alpha virt. eigenvalues --   -0.00540  -0.00213   0.01047   0.06439   0.07902
 Alpha virt. eigenvalues --    0.08049   0.10257   0.10850   0.11314   0.12705
 Alpha virt. eigenvalues --    0.13714   0.14739   0.15019   0.15246   0.15727
 Alpha virt. eigenvalues --    0.16433   0.16785   0.17075   0.18223   0.18506
 Alpha virt. eigenvalues --    0.19105   0.20345   0.21121   0.23409   0.25194
 Alpha virt. eigenvalues --    0.26168   0.28379   0.29143   0.32023   0.33190
 Alpha virt. eigenvalues --    0.33988   0.35034   0.36264   0.38357   0.40181
 Alpha virt. eigenvalues --    0.42969   0.46193   0.48554   0.49854   0.50730
 Alpha virt. eigenvalues --    0.52208   0.52546   0.52771   0.53514   0.54202
 Alpha virt. eigenvalues --    0.54428   0.55223   0.55967   0.56409   0.57334
 Alpha virt. eigenvalues --    0.58158   0.58653   0.58743   0.59736   0.60045
 Alpha virt. eigenvalues --    0.61508   0.62214   0.62908   0.63512   0.64345
 Alpha virt. eigenvalues --    0.64542   0.66134   0.66932   0.67461   0.68495
 Alpha virt. eigenvalues --    0.69187   0.69206   0.70066   0.72404   0.73597
 Alpha virt. eigenvalues --    0.74941   0.75996   0.78906   0.80105   0.80475
 Alpha virt. eigenvalues --    0.81161   0.82802   0.84017   0.84709   0.84979
 Alpha virt. eigenvalues --    0.85792   0.85953   0.86171   0.87054   0.87774
 Alpha virt. eigenvalues --    0.87912   0.88876   0.90348   0.90359   0.91964
 Alpha virt. eigenvalues --    0.92594   0.93663   0.94156   0.97193   0.97678
 Alpha virt. eigenvalues --    0.98268   1.00169   1.02833   1.03530   1.05575
 Alpha virt. eigenvalues --    1.05885   1.06832   1.08578   1.08914   1.09775
 Alpha virt. eigenvalues --    1.13282   1.13793   1.15781   1.15898   1.17514
 Alpha virt. eigenvalues --    1.20369   1.20975   1.22366   1.25199   1.26397
 Alpha virt. eigenvalues --    1.30240   1.30781   1.31990   1.35703   1.37580
 Alpha virt. eigenvalues --    1.38505   1.40187   1.41806   1.42720   1.45462
 Alpha virt. eigenvalues --    1.45955   1.46408   1.48994   1.49941   1.50163
 Alpha virt. eigenvalues --    1.51657   1.51932   1.55289   1.56793   1.57738
 Alpha virt. eigenvalues --    1.61489   1.65245   1.66492   1.67078   1.67889
 Alpha virt. eigenvalues --    1.72920   1.77129   1.77961   1.79241   1.79896
 Alpha virt. eigenvalues --    1.80240   1.82001   1.83438   1.84930   1.85137
 Alpha virt. eigenvalues --    1.88947   1.89286   1.91339   1.92083   1.93492
 Alpha virt. eigenvalues --    1.94787   1.97093   1.98421   1.99151   1.99336
 Alpha virt. eigenvalues --    2.01399   2.05184   2.06018   2.08172   2.08476
 Alpha virt. eigenvalues --    2.08821   2.10258   2.11379   2.13099   2.15308
 Alpha virt. eigenvalues --    2.15444   2.15731   2.19050   2.19420   2.21718
 Alpha virt. eigenvalues --    2.25440   2.26612   2.27325   2.29014   2.31239
 Alpha virt. eigenvalues --    2.33297   2.33649   2.35013   2.35782   2.36783
 Alpha virt. eigenvalues --    2.37667   2.41051   2.41828   2.43838   2.44627
 Alpha virt. eigenvalues --    2.45105   2.51407   2.53642   2.56958   2.57408
 Alpha virt. eigenvalues --    2.59154   2.60292   2.63785   2.65095   2.66016
 Alpha virt. eigenvalues --    2.69334   2.70226   2.74842   2.78841   2.82906
 Alpha virt. eigenvalues --    2.84222   2.84550   2.85829   2.89090   2.92239
 Alpha virt. eigenvalues --    2.92478   3.00007   3.06433   3.06751   3.09075
 Alpha virt. eigenvalues --    3.18924   3.35292   3.38248   3.50237   3.84488
 Alpha virt. eigenvalues --    3.85608   4.09910   4.10390   4.10910   4.11048
 Alpha virt. eigenvalues --    4.14430   4.17886   4.22592   4.23157   4.27286
 Alpha virt. eigenvalues --    4.28880   4.33697   4.40193   4.43800   4.58823
 Alpha virt. eigenvalues --    4.77559   4.86881
          Condensed to atoms (all electrons):
               1          2          3          4          5          6
     1  C    5.272381   0.440088   0.484195  -0.052963  -0.070572  -0.052837
     2  C    0.440088   4.844431  -0.010304  -0.028652   0.505683  -0.021660
     3  C    0.484195  -0.010304   4.763670   0.491312  -0.042515  -0.030083
     4  C   -0.052963  -0.028652   0.491312   4.604027  -0.015208   0.497948
     5  C   -0.070572   0.505683  -0.042515  -0.015208   5.081988   0.488252
     6  C   -0.052837  -0.021660  -0.030083   0.497948   0.488252   5.120860
     7  C   -0.039361   0.348711   0.005393   0.000740  -0.056331   0.007817
     8  C   -0.021286  -0.038603   0.000606  -0.000028   0.009141  -0.000208
     9  C    0.009374  -0.056243  -0.000154  -0.000003  -0.022053   0.000631
    10  C   -0.000214   0.007628   0.000002  -0.000000   0.000656  -0.000011
    11  C    0.000592   0.005401  -0.000010  -0.000000  -0.000148   0.000002
    12  C   -0.000028   0.000791  -0.000000   0.000000  -0.000006  -0.000000
    13  N    0.008932   0.000102  -0.072534   0.281381   0.006966  -0.087552
    14  O    0.000002  -0.000091  -0.000000   0.000000   0.000000   0.000000
    15  C   -0.000001   0.000004  -0.000000  -0.000000   0.000000   0.000000
    16  N   -0.000000  -0.000006   0.000000  -0.000000   0.000000   0.000000
    17  H    0.331771  -0.034666  -0.041443   0.006460   0.006820   0.000262
    18  H    0.005741  -0.035700   0.000829   0.003514   0.346671  -0.039562
    19  H    0.006407  -0.013976   0.000240  -0.000009  -0.000220  -0.000003
    20  H   -0.000241  -0.011792   0.000005  -0.000018   0.006019   0.000207
    21  H    0.000002  -0.000222  -0.000000  -0.000000   0.000006   0.000000
    22  H    0.000195  -0.000013  -0.016087  -0.023043  -0.000206   0.007493
    23  H   -0.000188  -0.000005   0.005657  -0.020986  -0.000013  -0.007998
    24  H    0.000000  -0.000000   0.000000  -0.000000  -0.000000  -0.000000
    25  H   -0.000003   0.000012  -0.000000  -0.000000  -0.000000   0.000000
    26  H    0.000000  -0.000001  -0.000000   0.000000  -0.000000   0.000000
    27  H   -0.000000   0.000001  -0.000000   0.000000  -0.000000   0.000000
    28  H    0.000000  -0.000000   0.000000  -0.000000  -0.000000  -0.000000
    29  O   -0.055538   0.003998   0.209778  -0.061262   0.000131   0.005068
    30  C   -0.003279  -0.000162  -0.039471  -0.005222   0.000033  -0.000069
    31  H    0.000625   0.002424   0.004004  -0.034981  -0.030391   0.346182
    32  H   -0.000089   0.000003   0.004000  -0.000019  -0.000000   0.000008
    33  H    0.004153  -0.000464   0.001846   0.000004  -0.000023   0.000054
    34  H    0.000053   0.000083  -0.003354   0.003736   0.000004  -0.000685
               7          8          9         10         11         12
     1  C   -0.039361  -0.021286   0.009374  -0.000214   0.000592  -0.000028
     2  C    0.348711  -0.038603  -0.056243   0.007628   0.005401   0.000791
     3  C    0.005393   0.000606  -0.000154   0.000002  -0.000010  -0.000000
     4  C    0.000740  -0.000028  -0.000003  -0.000000  -0.000000   0.000000
     5  C   -0.056331   0.009141  -0.022053   0.000656  -0.000148  -0.000006
     6  C    0.007817  -0.000208   0.000631  -0.000011   0.000002  -0.000000
     7  C    4.848553   0.440880   0.503710  -0.021233  -0.011128  -0.028669
     8  C    0.440880   5.269249  -0.071672  -0.052502   0.486136  -0.052531
     9  C    0.503710  -0.071672   5.082903   0.489711  -0.041901  -0.016224
    10  C   -0.021233  -0.052502   0.489711   5.119985  -0.029970   0.497694
    11  C   -0.011128   0.486136  -0.041901  -0.029970   4.765568   0.490569
    12  C   -0.028669  -0.052531  -0.016224   0.497694   0.490569   4.604370
    13  N   -0.000006  -0.000000   0.000000   0.000000   0.000000  -0.000000
    14  O    0.004123  -0.055435   0.000129   0.005109   0.209448  -0.061130
    15  C   -0.000160  -0.004692   0.000034  -0.000043  -0.041894  -0.004309
    16  N    0.000092   0.008837   0.007037  -0.087598  -0.073218   0.281756
    17  H   -0.013795   0.006303  -0.000217  -0.000002   0.000245  -0.000010
    18  H   -0.012220  -0.000256   0.006281   0.000220   0.000005  -0.000019
    19  H   -0.034548   0.331979   0.006797   0.000252  -0.041600   0.006479
    20  H   -0.035821   0.005667   0.346710  -0.039497   0.000827   0.003563
    21  H    0.002398   0.000649  -0.030149   0.345877   0.004073  -0.035324
    22  H    0.000001  -0.000000  -0.000000   0.000000  -0.000000   0.000000
    23  H   -0.000000   0.000000  -0.000000  -0.000000   0.000000  -0.000000
    24  H    0.000002  -0.000034  -0.000000   0.000008   0.004041  -0.000085
    25  H   -0.000559   0.004643  -0.000031   0.000053   0.002777   0.000161
    26  H    0.000082   0.000020   0.000005  -0.000638  -0.003581   0.003547
    27  H   -0.000015   0.000184  -0.000212   0.007607  -0.015986  -0.023657
    28  H   -0.000005  -0.000187  -0.000013  -0.008246   0.005667  -0.020987
    29  O   -0.000089   0.000002   0.000000   0.000000  -0.000000   0.000000
    30  C    0.000002  -0.000001   0.000000   0.000000  -0.000000   0.000000
    31  H   -0.000221   0.000002   0.000005   0.000000  -0.000000  -0.000000
    32  H   -0.000000   0.000000  -0.000000  -0.000000   0.000000  -0.000000
    33  H    0.000010  -0.000002  -0.000000   0.000000  -0.000000  -0.000000
    34  H   -0.000001   0.000000  -0.000000   0.000000  -0.000000   0.000000
              13         14         15         16         17         18
     1  C    0.008932   0.000002  -0.000001  -0.000000   0.331771   0.005741
     2  C    0.000102  -0.000091   0.000004  -0.000006  -0.034666  -0.035700
     3  C   -0.072534  -0.000000  -0.000000   0.000000  -0.041443   0.000829
     4  C    0.281381   0.000000  -0.000000  -0.000000   0.006460   0.003514
     5  C    0.006966   0.000000   0.000000   0.000000   0.006820   0.346671
     6  C   -0.087552   0.000000   0.000000   0.000000   0.000262  -0.039562
     7  C   -0.000006   0.004123  -0.000160   0.000092  -0.013795  -0.012220
     8  C   -0.000000  -0.055435  -0.004692   0.008837   0.006303  -0.000256
     9  C    0.000000   0.000129   0.000034   0.007037  -0.000217   0.006281
    10  C    0.000000   0.005109  -0.000043  -0.087598  -0.000002   0.000220
    11  C    0.000000   0.209448  -0.041894  -0.073218   0.000245   0.000005
    12  C   -0.000000  -0.061130  -0.004309   0.281756  -0.000010  -0.000019
    13  N    7.099024  -0.000000   0.000000  -0.000000  -0.000150  -0.000148
    14  O   -0.000000   8.301654   0.245461  -0.010909  -0.000005   0.000000
    15  C    0.000000   0.245461   4.917769  -0.001865   0.000000   0.000000
    16  N   -0.000000  -0.010909  -0.001865   7.099549  -0.000000  -0.000000
    17  H   -0.000150  -0.000005   0.000000  -0.000000   0.602555  -0.000147
    18  H   -0.000148   0.000000   0.000000  -0.000000  -0.000147   0.590955
    19  H   -0.000000   0.000550   0.000404  -0.000147   0.003148  -0.000002
    20  H   -0.000000   0.000002  -0.000000  -0.000149  -0.000002   0.002800
    21  H   -0.000000  -0.000053  -0.000001  -0.009290   0.000000   0.000010
    22  H    0.307017   0.000000  -0.000000   0.000000  -0.000019   0.000004
    23  H    0.316031   0.000000   0.000000   0.000000   0.000005  -0.000016
    24  H    0.000000  -0.030823   0.376542  -0.000060   0.000000  -0.000000
    25  H   -0.000000  -0.041138   0.364468   0.000047  -0.000002  -0.000000
    26  H   -0.000000  -0.045703   0.364996   0.005087  -0.000000  -0.000000
    27  H    0.000000   0.020971   0.000106   0.306921   0.000000   0.000000
    28  H    0.000000   0.000021   0.000008   0.315956  -0.000000   0.000000
    29  O   -0.011220   0.000000   0.000000  -0.000000   0.000471   0.000002
    30  C   -0.001618   0.000000  -0.000000   0.000000   0.000380  -0.000000
    31  H   -0.009003   0.000000  -0.000000  -0.000000   0.000016  -0.004885
    32  H   -0.000087  -0.000000  -0.000000   0.000000  -0.000074   0.000000
    33  H    0.000059   0.000000   0.000000  -0.000000   0.000319  -0.000000
    34  H    0.004916   0.000000   0.000000  -0.000000   0.000160   0.000000
              19         20         21         22         23         24
     1  C    0.006407  -0.000241   0.000002   0.000195  -0.000188   0.000000
     2  C   -0.013976  -0.011792  -0.000222  -0.000013  -0.000005  -0.000000
     3  C    0.000240   0.000005  -0.000000  -0.016087   0.005657   0.000000
     4  C   -0.000009  -0.000018  -0.000000  -0.023043  -0.020986  -0.000000
     5  C   -0.000220   0.006019   0.000006  -0.000206  -0.000013  -0.000000
     6  C   -0.000003   0.000207   0.000000   0.007493  -0.007998  -0.000000
     7  C   -0.034548  -0.035821   0.002398   0.000001  -0.000000   0.000002
     8  C    0.331979   0.005667   0.000649  -0.000000   0.000000  -0.000034
     9  C    0.006797   0.346710  -0.030149  -0.000000  -0.000000  -0.000000
    10  C    0.000252  -0.039497   0.345877   0.000000  -0.000000   0.000008
    11  C   -0.041600   0.000827   0.004073  -0.000000   0.000000   0.004041
    12  C    0.006479   0.003563  -0.035324   0.000000  -0.000000  -0.000085
    13  N   -0.000000  -0.000000  -0.000000   0.307017   0.316031   0.000000
    14  O    0.000550   0.000002  -0.000053   0.000000   0.000000  -0.030823
    15  C    0.000404  -0.000000  -0.000001  -0.000000   0.000000   0.376542
    16  N   -0.000147  -0.000149  -0.009290   0.000000   0.000000  -0.000060
    17  H    0.003148  -0.000002   0.000000  -0.000019   0.000005   0.000000
    18  H   -0.000002   0.002800   0.000010   0.000004  -0.000016  -0.000000
    19  H    0.602508  -0.000145   0.000016   0.000000  -0.000000  -0.000091
    20  H   -0.000145   0.590718  -0.004904   0.000000   0.000000   0.000000
    21  H    0.000016  -0.004904   0.577823  -0.000000   0.000000  -0.000000
    22  H    0.000000   0.000000  -0.000000   0.369926  -0.019205   0.000000
    23  H   -0.000000   0.000000   0.000000  -0.019205   0.362458  -0.000000
    24  H   -0.000091   0.000000  -0.000000   0.000000  -0.000000   0.545362
    25  H    0.000407  -0.000000  -0.000001  -0.000000  -0.000000  -0.028986
    26  H    0.000141   0.000000   0.000010  -0.000000   0.000000  -0.032962
    27  H   -0.000019   0.000004  -0.000088  -0.000000  -0.000000   0.000031
    28  H    0.000005  -0.000016   0.008045   0.000000  -0.000000  -0.000001
    29  O   -0.000005   0.000000   0.000000   0.021215   0.000047  -0.000000
    30  C    0.000000   0.000000  -0.000000   0.000102   0.000003  -0.000000
    31  H    0.000000   0.000010   0.000000  -0.000094   0.007726   0.000000
    32  H   -0.000000  -0.000000   0.000000  -0.000022  -0.000001   0.000000
    33  H   -0.000002  -0.000000  -0.000000   0.000408  -0.000000  -0.000000
    34  H   -0.000000  -0.000000   0.000000  -0.003167   0.000055  -0.000000
              25         26         27         28         29         30
     1  C   -0.000003   0.000000  -0.000000   0.000000  -0.055538  -0.003279
     2  C    0.000012  -0.000001   0.000001  -0.000000   0.003998  -0.000162
     3  C   -0.000000  -0.000000  -0.000000   0.000000   0.209778  -0.039471
     4  C   -0.000000   0.000000   0.000000  -0.000000  -0.061262  -0.005222
     5  C   -0.000000  -0.000000  -0.000000  -0.000000   0.000131   0.000033
     6  C    0.000000   0.000000   0.000000  -0.000000   0.005068  -0.000069
     7  C   -0.000559   0.000082  -0.000015  -0.000005  -0.000089   0.000002
     8  C    0.004643   0.000020   0.000184  -0.000187   0.000002  -0.000001
     9  C   -0.000031   0.000005  -0.000212  -0.000013   0.000000   0.000000
    10  C    0.000053  -0.000638   0.007607  -0.008246   0.000000   0.000000
    11  C    0.002777  -0.003581  -0.015986   0.005667  -0.000000  -0.000000
    12  C    0.000161   0.003547  -0.023657  -0.020987   0.000000   0.000000
    13  N   -0.000000  -0.000000   0.000000   0.000000  -0.011220  -0.001618
    14  O   -0.041138  -0.045703   0.020971   0.000021   0.000000   0.000000
    15  C    0.364468   0.364996   0.000106   0.000008   0.000000  -0.000000
    16  N    0.000047   0.005087   0.306921   0.315956  -0.000000   0.000000
    17  H   -0.000002  -0.000000   0.000000  -0.000000   0.000471   0.000380
    18  H   -0.000000  -0.000000   0.000000   0.000000   0.000002  -0.000000
    19  H    0.000407   0.000141  -0.000019   0.000005  -0.000005   0.000000
    20  H   -0.000000   0.000000   0.000004  -0.000016   0.000000   0.000000
    21  H   -0.000001   0.000010  -0.000088   0.008045   0.000000  -0.000000
    22  H   -0.000000  -0.000000  -0.000000   0.000000   0.021215   0.000102
    23  H   -0.000000   0.000000  -0.000000  -0.000000   0.000047   0.000003
    24  H   -0.028986  -0.032962   0.000031  -0.000001  -0.000000  -0.000000
    25  H    0.586552  -0.041202   0.000430  -0.000000   0.000000   0.000000
    26  H   -0.041202   0.607144  -0.003374   0.000055   0.000000   0.000000
    27  H    0.000430  -0.003374   0.370609  -0.018874   0.000000  -0.000000
    28  H   -0.000000   0.000055  -0.018874   0.361436   0.000000   0.000000
    29  O    0.000000   0.000000   0.000000   0.000000   8.303152   0.243627
    30  C    0.000000   0.000000  -0.000000   0.000000   0.243627   4.915707
    31  H   -0.000000   0.000000  -0.000000   0.000000  -0.000053  -0.000001
    32  H   -0.000000  -0.000000   0.000000   0.000000  -0.031218   0.376581
    33  H   -0.000000   0.000000  -0.000000  -0.000000  -0.041626   0.366372
    34  H    0.000000   0.000000  -0.000000   0.000000  -0.044542   0.364154
              31         32         33         34
     1  C    0.000625  -0.000089   0.004153   0.000053
     2  C    0.002424   0.000003  -0.000464   0.000083
     3  C    0.004004   0.004000   0.001846  -0.003354
     4  C   -0.034981  -0.000019   0.000004   0.003736
     5  C   -0.030391  -0.000000  -0.000023   0.000004
     6  C    0.346182   0.000008   0.000054  -0.000685
     7  C   -0.000221  -0.000000   0.000010  -0.000001
     8  C    0.000002   0.000000  -0.000002   0.000000
     9  C    0.000005  -0.000000  -0.000000  -0.000000
    10  C    0.000000  -0.000000   0.000000   0.000000
    11  C   -0.000000   0.000000  -0.000000  -0.000000
    12  C   -0.000000  -0.000000  -0.000000   0.000000
    13  N   -0.009003  -0.000087   0.000059   0.004916
    14  O    0.000000  -0.000000   0.000000   0.000000
    15  C   -0.000000  -0.000000   0.000000   0.000000
    16  N   -0.000000   0.000000  -0.000000  -0.000000
    17  H    0.000016  -0.000074   0.000319   0.000160
    18  H   -0.004885   0.000000  -0.000000   0.000000
    19  H    0.000000  -0.000000  -0.000002  -0.000000
    20  H    0.000010  -0.000000  -0.000000  -0.000000
    21  H    0.000000   0.000000  -0.000000   0.000000
    22  H   -0.000094  -0.000022   0.000408  -0.003167
    23  H    0.007726  -0.000001  -0.000000   0.000055
    24  H    0.000000   0.000000  -0.000000  -0.000000
    25  H   -0.000000  -0.000000  -0.000000   0.000000
    26  H    0.000000  -0.000000   0.000000   0.000000
    27  H   -0.000000   0.000000  -0.000000  -0.000000
    28  H    0.000000   0.000000  -0.000000   0.000000
    29  O   -0.000053  -0.031218  -0.041626  -0.044542
    30  C   -0.000001   0.376581   0.366372   0.364154
    31  H    0.577221  -0.000000  -0.000000   0.000010
    32  H   -0.000000   0.545935  -0.029927  -0.031960
    33  H   -0.000000  -0.029927   0.587043  -0.040703
    34  H    0.000010  -0.031960  -0.040703   0.603929
 Mulliken charges:
               1
     1  C   -0.267910
     2  C    0.093199
     3  C    0.284417
     4  C    0.353271
     5  C   -0.214684
     6  C   -0.234115
     7  C    0.091645
     8  C   -0.266864
     9  C   -0.214455
    10  C   -0.234847
    11  C    0.284082
    12  C    0.354049
    13  N   -0.842109
    14  O   -0.542184
    15  C   -0.216826
    16  N   -0.842040
    17  H    0.131619
    18  H    0.135922
    19  H    0.131435
    20  H    0.136055
    21  H    0.141124
    22  H    0.355497
    23  H    0.356430
    24  H    0.167057
    25  H    0.152372
    26  H    0.146376
    27  H    0.355360
    28  H    0.357138
    29  O   -0.541939
    30  C   -0.217140
    31  H    0.141403
    32  H    0.166869
    33  H    0.152481
    34  H    0.147311
 Sum of Mulliken charges =  -0.00000
 Mulliken charges with hydrogens summed into heavy atoms:
               1
     1  C   -0.136291
     2  C    0.093199
     3  C    0.284417
     4  C    0.353271
     5  C   -0.078762
     6  C   -0.092711
     7  C    0.091645
     8  C   -0.135428
     9  C   -0.078401
    10  C   -0.093723
    11  C    0.284082
    12  C    0.354049
    13  N   -0.130181
    14  O   -0.542184
    15  C    0.248979
    16  N   -0.129542
    29  O   -0.541939
    30  C    0.249521
 Electronic spatial extent (au):  <R**2>=           6251.0715
 Charge=             -0.0000 electrons
 Dipole moment (field-independent basis, Debye):
    X=             -0.0476    Y=             -1.3549    Z=              0.0376  Tot=              1.3563
 Quadrupole moment (field-independent basis, Debye-Ang):
   XX=            -58.2037   YY=            -95.9752   ZZ=           -105.5560
   XY=             -0.1596   XZ=              3.2530   YZ=             -0.0383
 Traceless Quadrupole moment (field-independent basis, Debye-Ang):
   XX=             28.3746   YY=             -9.3969   ZZ=            -18.9777
   XY=             -0.1596   XZ=              3.2530   YZ=             -0.0383
 Octapole moment (field-independent basis, Debye-Ang**2):
  XXX=             -2.8890  YYY=             -6.0178  ZZZ=              0.4234  XYY=             -0.1730
  XXY=            -19.1781  XXZ=             -0.0438  XZZ=              0.0154  YZZ=             12.2003
  YYZ=              0.5182  XYZ=             44.5092
 Hexadecapole moment (field-independent basis, Debye-Ang**3):
 XXXX=          -4723.9957 YYYY=          -1200.8841 ZZZZ=           -420.5875 XXXY=             -6.8570
 XXXZ=            -73.7051 YYYX=             -0.8103 YYYZ=              0.3492 ZZZX=             26.4351
 ZZZY=              0.0167 XXYY=          -1084.7987 XXZZ=          -1098.7473 YYZZ=           -264.2163
 XXYZ=             -0.0214 YYXZ=             -0.9380 ZZXY=              1.4946
 N-N= 1.252076105635D+03 E-N=-4.373845259734D+03  KE= 7.958790717090D+02
 D1PCM: PCM CHGder 1st derivatives, ID1Alg=3 FixD1E=F DoIter=F DoCFld=F I1PDM=0.
 Calling FoFJK, ICntrl=      2127 FMM=F ISym2X=0 I1Cent= 0 IOpClX= 0 NMat=1 NMatS=1 NMatT=0.
 ***** Axes restored to original set *****
 -------------------------------------------------------------------
 Center     Atomic                   Forces (Hartrees/Bohr)
 Number     Number              X              Y              Z
 -------------------------------------------------------------------
      1        6           0.019275224   -0.009800932    0.010037342
      2        6          -0.012051284   -0.002781022    0.041538347
      3        6          -0.011067313    0.001058556   -0.042604046
      4        6           0.001606136    0.009953575    0.005565719
      5        6          -0.019327876    0.006769209    0.006175993
      6        6          -0.002631953    0.009358927   -0.019881321
      7        6           0.011850868    0.001614149   -0.041625075
      8        6           0.003067906   -0.022871202   -0.005592389
      9        6           0.001387021    0.019018120   -0.009640911
     10        6          -0.010671701    0.009315025    0.017827839
     11        6          -0.001230699    0.019151729    0.039810343
     12        6          -0.008717606    0.000821032   -0.005716734
     13        7          -0.003595575   -0.003497790    0.019384277
     14        8           0.016045520    0.000146228   -0.000945405
     15        6          -0.010338589   -0.014040333   -0.010122888
     16        7           0.006378694   -0.002885633   -0.017449654
     17        1          -0.005305019    0.007218567    0.000974722
     18        1           0.008242956   -0.006020269    0.002896472
     19        1          -0.004501313    0.007633522   -0.003172666
     20        1           0.003964037   -0.010445959   -0.000159053
     21        1           0.001701060   -0.008779904    0.004005916
     22        1          -0.016640172    0.007648409    0.005638093
     23        1           0.009091080   -0.011276779    0.014317909
     24        1          -0.007280974    0.010002960    0.003446665
     25        1           0.005175308    0.001795275   -0.010638164
     26        1          -0.000818510   -0.009742569    0.007631971
     27        1           0.000060991    0.017234260   -0.010510162
     28        1           0.009380083   -0.015309440   -0.011596944
     29        8          -0.007353664   -0.015107748    0.002854727
     30        6           0.015331292    0.005974496    0.010983798
     31        1           0.008887494   -0.006160434   -0.002000763
     32        1          -0.004469331    0.009951956   -0.006942566
     33        1          -0.005596906   -0.000740076    0.010860378
     34        1           0.010152816   -0.005205905   -0.005351769
 -------------------------------------------------------------------
 Cartesian Forces:  Max     0.042604046 RMS     0.012622709

 GradGradGradGradGradGradGradGradGradGradGradGradGradGradGradGradGradGrad
 Berny optimization.
 FormGI is forming the generalized inverse of G from B-inverse, IUseBI=4.
 Internal  Forces:  Max     0.056643639 RMS     0.009781444
 Search for a local minimum.
 Step number   1 out of a maximum of  171
 All quantities printed in internal units (Hartrees-Bohrs-Radians)
 Mixed Optimization -- RFO/linear search
 Second derivative matrix not updated -- first step.
 ITU=  0
     Eigenvalues ---    0.01574   0.01587   0.01943   0.02015   0.02019
     Eigenvalues ---    0.02053   0.02056   0.02060   0.02063   0.02116
     Eigenvalues ---    0.02118   0.02124   0.02125   0.02153   0.02157
     Eigenvalues ---    0.02157   0.02161   0.02171   0.02179   0.02186
     Eigenvalues ---    0.02195   0.02242   0.02246   0.02438   0.02438
     Eigenvalues ---    0.02441   0.02444   0.10415   0.10421   0.10698
     Eigenvalues ---    0.10748   0.15925   0.15937   0.15978   0.15987
     Eigenvalues ---    0.15999   0.16000   0.16000   0.16000   0.16000
     Eigenvalues ---    0.16000   0.16000   0.16000   0.16000   0.16000
     Eigenvalues ---    0.16000   0.16000   0.22344   0.22347   0.23365
     Eigenvalues ---    0.23372   0.24421   0.24447   0.24557   0.24586
     Eigenvalues ---    0.24969   0.24970   0.24990   0.24999   0.25000
     Eigenvalues ---    0.25000   0.32082   0.32093   0.32130   0.32134
     Eigenvalues ---    0.32256   0.32268   0.33280   0.33464   0.33542
     Eigenvalues ---    0.33551   0.33625   0.33625   0.41541   0.41562
     Eigenvalues ---    0.41950   0.41966   0.43844   0.44182   0.44328
     Eigenvalues ---    0.44682   0.44712   0.44744   0.44752   0.45159
     Eigenvalues ---    0.45214   0.45650   0.45677   0.46042   0.46075
     Eigenvalues ---    0.46554   0.46668   0.51929   0.51984   0.56401
     Eigenvalues ---    0.56450
 RFO step:  Lambda=-4.25230589D-02 EMin= 1.57447850D-02
 Linear search not attempted -- first point.
 Maximum step size (   0.300) exceeded in Quadratic search.
    -- Step size scaled by   0.863
 Iteration  1 RMS(Cart)=  0.06712730 RMS(Int)=  0.00117094
 Iteration  2 RMS(Cart)=  0.00191015 RMS(Int)=  0.00028345
 Iteration  3 RMS(Cart)=  0.00000164 RMS(Int)=  0.00028345
 Iteration  4 RMS(Cart)=  0.00000000 RMS(Int)=  0.00028345
 Variable       Old X    -DE/DX   Delta X   Delta X   Delta X     New X
                                 (Linear)    (Quad)   (Total)
    R1        2.65270   0.00469   0.00000   0.00779   0.00766   2.66036
    R2        2.64743  -0.00538   0.00000  -0.00944  -0.00943   2.63800
    R3        2.07968  -0.00854   0.00000  -0.01946  -0.01946   2.06022
    R4        2.65045   0.00972   0.00000   0.01659   0.01644   2.66689
    R5        2.66641   0.05664   0.00000   0.10169   0.10169   2.76810
    R6        2.64077   0.01521   0.00000   0.02652   0.02667   2.66744
    R7        2.57914   0.01467   0.00000   0.02253   0.02253   2.60167
    R8        2.63221   0.01440   0.00000   0.02478   0.02491   2.65712
    R9        2.53907   0.04125   0.00000   0.05873   0.05873   2.59780
   R10        2.63559  -0.00064   0.00000  -0.00104  -0.00106   2.63453
   R11        2.07968  -0.00981   0.00000  -0.02236  -0.02236   2.05732
   R12        2.08563  -0.01088   0.00000  -0.02504  -0.02504   2.06059
   R13        2.65323   0.00464   0.00000   0.00762   0.00750   2.66073
   R14        2.65111   0.00930   0.00000   0.01585   0.01571   2.66683
   R15        2.64824  -0.00556   0.00000  -0.00981  -0.00981   2.63844
   R16        2.08095  -0.00903   0.00000  -0.02062  -0.02062   2.06032
   R17        2.63484  -0.00046   0.00000  -0.00069  -0.00072   2.63413
   R18        2.08110  -0.01028   0.00000  -0.02349  -0.02349   2.05761
   R19        2.63038   0.01578   0.00000   0.02709   0.02722   2.65760
   R20        2.08245  -0.00973   0.00000  -0.02228  -0.02228   2.06017
   R21        2.64089   0.01445   0.00000   0.02526   0.02541   2.66630
   R22        2.57968   0.01493   0.00000   0.02295   0.02295   2.60262
   R23        2.53866   0.04216   0.00000   0.05998   0.05998   2.59863
   R24        1.92347  -0.01022   0.00000  -0.01803  -0.01803   1.90543
   R25        1.92265  -0.01011   0.00000  -0.01782  -0.01782   1.90483
   R26        2.66237   0.02029   0.00000   0.03617   0.03617   2.69854
   R27        2.10356  -0.01283   0.00000  -0.03034  -0.03034   2.07322
   R28        2.10599  -0.01089   0.00000  -0.02585  -0.02585   2.08014
   R29        2.10606  -0.01024   0.00000  -0.02430  -0.02430   2.08176
   R30        1.92274  -0.00977   0.00000  -0.01721  -0.01721   1.90553
   R31        1.92311  -0.01045   0.00000  -0.01843  -0.01843   1.90468
   R32        2.66064   0.02061   0.00000   0.03663   0.03663   2.69728
   R33        2.10377  -0.01289   0.00000  -0.03048  -0.03048   2.07329
   R34        2.10674  -0.01093   0.00000  -0.02598  -0.02598   2.08077
   R35        2.10695  -0.01066   0.00000  -0.02534  -0.02534   2.08161
    A1        2.15816  -0.00235   0.00000  -0.00879  -0.00897   2.14919
    A2        2.10885  -0.00092   0.00000  -0.00451  -0.00442   2.10443
    A3        2.01538   0.00328   0.00000   0.01336   0.01344   2.02882
    A4        2.02956  -0.00342   0.00000  -0.01166  -0.01201   2.01754
    A5        2.14228  -0.00271   0.00000  -0.00714  -0.00697   2.13530
    A6        2.11104   0.00614   0.00000   0.01897   0.01914   2.13018
    A7        2.04387   0.01525   0.00000   0.04844   0.04821   2.09208
    A8        2.10979  -0.00408   0.00000  -0.00996  -0.01051   2.09928
    A9        2.11326  -0.01046   0.00000  -0.02895  -0.02956   2.08370
   A10        2.10906  -0.01887   0.00000  -0.05417  -0.05405   2.05501
   A11        2.09491   0.00301   0.00000   0.00851   0.00829   2.10319
   A12        2.07804   0.01596   0.00000   0.04686   0.04666   2.12470
   A13        2.12234   0.00370   0.00000   0.01160   0.01126   2.13360
   A14        2.12546  -0.00581   0.00000  -0.02214  -0.02215   2.10331
   A15        2.03103   0.00231   0.00000   0.01278   0.01282   2.04385
   A16        2.09152   0.00619   0.00000   0.02110   0.02114   2.11266
   A17        2.09969  -0.00475   0.00000  -0.01760  -0.01763   2.08206
   A18        2.09188  -0.00145   0.00000  -0.00358  -0.00362   2.08826
   A19        2.13778  -0.00178   0.00000  -0.00445  -0.00426   2.13352
   A20        2.11616   0.00519   0.00000   0.01612   0.01631   2.13247
   A21        2.02923  -0.00340   0.00000  -0.01167  -0.01204   2.01718
   A22        2.15900  -0.00227   0.00000  -0.00859  -0.00880   2.15019
   A23        2.10822  -0.00090   0.00000  -0.00424  -0.00414   2.10409
   A24        2.01462   0.00320   0.00000   0.01315   0.01324   2.02786
   A25        2.11917   0.00410   0.00000   0.01306   0.01269   2.13186
   A26        2.13098  -0.00647   0.00000  -0.02491  -0.02487   2.10610
   A27        2.02940   0.00253   0.00000   0.01370   0.01378   2.04318
   A28        2.09600   0.00543   0.00000   0.01905   0.01905   2.11505
   A29        2.09330  -0.00156   0.00000  -0.00462  -0.00464   2.08866
   A30        2.09387  -0.00388   0.00000  -0.01449  -0.01450   2.07937
   A31        2.04326   0.01534   0.00000   0.04853   0.04833   2.09159
   A32        2.10503  -0.00306   0.00000  -0.00721  -0.00767   2.09736
   A33        2.12035  -0.01166   0.00000  -0.03287  -0.03343   2.08693
   A34        2.10674  -0.01862   0.00000  -0.05308  -0.05299   2.05375
   A35        2.07238   0.01774   0.00000   0.05193   0.05176   2.12414
   A36        2.10288   0.00098   0.00000   0.00232   0.00212   2.10500
   A37        2.02402   0.00918   0.00000   0.03912   0.03901   2.06303
   A38        2.01595   0.01240   0.00000   0.05284   0.05274   2.06868
   A39        2.24321  -0.02159   0.00000  -0.09206  -0.09216   2.15105
   A40        1.98229   0.00554   0.00000   0.01635   0.01635   1.99864
   A41        1.87585  -0.00190   0.00000  -0.00843  -0.00847   1.86739
   A42        1.91289   0.00536   0.00000   0.02268   0.02245   1.93534
   A43        1.90923   0.00916   0.00000   0.03954   0.03930   1.94853
   A44        1.91383  -0.00237   0.00000  -0.01110  -0.01113   1.90270
   A45        1.91203  -0.00301   0.00000  -0.01245  -0.01250   1.89953
   A46        1.93892  -0.00703   0.00000  -0.02936  -0.02975   1.90917
   A47        2.01484   0.01035   0.00000   0.04396   0.04387   2.05871
   A48        2.01106   0.01273   0.00000   0.05413   0.05404   2.06510
   A49        2.25693  -0.02313   0.00000  -0.09879  -0.09888   2.15805
   A50        1.99258   0.00291   0.00000   0.00859   0.00859   2.00117
   A51        1.86806  -0.00060   0.00000  -0.00248  -0.00257   1.86548
   A52        1.91076   0.00590   0.00000   0.02490   0.02467   1.93543
   A53        1.91304   0.00827   0.00000   0.03547   0.03523   1.94826
   A54        1.91528  -0.00277   0.00000  -0.01224  -0.01231   1.90297
   A55        1.91239  -0.00304   0.00000  -0.01241  -0.01252   1.89986
   A56        1.94281  -0.00745   0.00000  -0.03188  -0.03223   1.91058
    D1       -0.06560   0.00171   0.00000   0.01871   0.01837  -0.04724
    D2        3.10248   0.00089   0.00000   0.01090   0.01077   3.11325
    D3        3.12081   0.00150   0.00000   0.01663   0.01639   3.13720
    D4        0.00571   0.00068   0.00000   0.00882   0.00879   0.01450
    D5        0.16226  -0.00243   0.00000  -0.04120  -0.04176   0.12050
    D6        3.11312   0.00056   0.00000   0.01111   0.01154   3.12466
    D7       -3.02197  -0.00232   0.00000  -0.03961  -0.04025  -3.06222
    D8       -0.07111   0.00068   0.00000   0.01270   0.01305  -0.05806
    D9       -0.04478   0.00132   0.00000   0.01690   0.01670  -0.02808
   D10       -3.08259  -0.00115   0.00000  -0.01047  -0.01015  -3.09273
   D11        3.07083   0.00199   0.00000   0.02415   0.02385   3.09468
   D12        0.03302  -0.00048   0.00000  -0.00322  -0.00299   0.03003
   D13        0.41186   0.00172   0.00000   0.02182   0.02172   0.43358
   D14       -2.72242   0.00152   0.00000   0.02112   0.02113  -2.70129
   D15       -2.70204   0.00101   0.00000   0.01413   0.01412  -2.68792
   D16        0.44687   0.00081   0.00000   0.01343   0.01353   0.46040
   D17       -0.15118   0.00278   0.00000   0.03732   0.03722  -0.11397
   D18        3.04314   0.00012   0.00000   0.00922   0.00995   3.05309
   D19       -3.10164  -0.00097   0.00000  -0.01732  -0.01772  -3.11936
   D20        0.09268  -0.00362   0.00000  -0.04542  -0.04498   0.04769
   D21        1.74260  -0.00513   0.00000  -0.06051  -0.05983   1.68277
   D22       -1.59733   0.00082   0.00000   0.00243   0.00174  -1.59559
   D23        0.05008  -0.00116   0.00000  -0.00838  -0.00784   0.04224
   D24       -3.10583  -0.00165   0.00000  -0.01554  -0.01506  -3.12089
   D25        3.13945   0.00109   0.00000   0.01835   0.01859  -3.12515
   D26       -0.01646   0.00061   0.00000   0.01119   0.01137  -0.00509
   D27       -0.03182  -0.00144   0.00000  -0.01634  -0.01598  -0.04780
   D28        3.11384   0.00058   0.00000   0.00972   0.01007   3.12392
   D29       -3.12162  -0.00300   0.00000  -0.04091  -0.04127   3.12029
   D30        0.02404  -0.00098   0.00000  -0.01486  -0.01522   0.00882
   D31        0.05236  -0.00208   0.00000  -0.02288  -0.02267   0.02969
   D32       -3.07497  -0.00157   0.00000  -0.01564  -0.01532  -3.09029
   D33        3.09550  -0.00021   0.00000   0.00110   0.00132   3.09682
   D34       -0.03184   0.00030   0.00000   0.00834   0.00868  -0.02316
   D35        3.08285   0.00144   0.00000   0.01767   0.01747   3.10032
   D36       -0.00050   0.00080   0.00000   0.01026   0.01022   0.00972
   D37       -0.06571   0.00167   0.00000   0.01845   0.01813  -0.04758
   D38        3.13412   0.00103   0.00000   0.01104   0.01089  -3.13818
   D39        3.07965   0.00182   0.00000   0.02133   0.02099   3.10064
   D40        0.03307  -0.00048   0.00000  -0.00357  -0.00337   0.02970
   D41       -0.05506   0.00162   0.00000   0.02065   0.02042  -0.03465
   D42       -3.10164  -0.00068   0.00000  -0.00425  -0.00395  -3.10559
   D43        0.16804  -0.00257   0.00000  -0.04305  -0.04359   0.12445
   D44        3.12987   0.00005   0.00000   0.00543   0.00597   3.13584
   D45       -3.02894  -0.00207   0.00000  -0.03649  -0.03713  -3.06608
   D46       -0.06711   0.00055   0.00000   0.01199   0.01243  -0.05469
   D47        0.06746  -0.00243   0.00000  -0.02787  -0.02771   0.03976
   D48       -3.06803  -0.00173   0.00000  -0.01762  -0.01729  -3.08532
   D49        3.11930  -0.00073   0.00000  -0.00637  -0.00619   3.11311
   D50       -0.01619  -0.00003   0.00000   0.00388   0.00422  -0.01196
   D51        0.04093  -0.00094   0.00000  -0.00536  -0.00483   0.03611
   D52        3.13048   0.00120   0.00000   0.02064   0.02098  -3.13173
   D53       -3.10676  -0.00163   0.00000  -0.01558  -0.01515  -3.12192
   D54       -0.01722   0.00051   0.00000   0.01041   0.01066  -0.00657
   D55       -0.15207   0.00280   0.00000   0.03765   0.03754  -0.11453
   D56        3.04248   0.00015   0.00000   0.00977   0.01052   3.05300
   D57       -3.11222  -0.00082   0.00000  -0.01419  -0.01448  -3.12670
   D58        0.08233  -0.00348   0.00000  -0.04208  -0.04151   0.04083
   D59        1.74454  -0.00494   0.00000  -0.05855  -0.05790   1.68664
   D60       -1.58485   0.00065   0.00000   0.00068   0.00004  -1.58481
   D61       -3.12939  -0.00306   0.00000  -0.04174  -0.04209   3.11170
   D62        0.03806  -0.00095   0.00000  -0.01447  -0.01483   0.02324
   D63       -0.03973  -0.00153   0.00000  -0.01752  -0.01716  -0.05689
   D64        3.12772   0.00058   0.00000   0.00975   0.01010   3.13783
   D65       -3.04941  -0.00023   0.00000  -0.00736  -0.00734  -3.05675
   D66       -0.97060  -0.00118   0.00000  -0.01293  -0.01321  -0.98382
[...]
 0,-0.00005903,-0.00002780,-0.00007241,0.00001299,-0.00003648,0.0024932
 9,0.27477031,-0.02861894,0.03277698,-0.03412845,0.00367608,-0.00182071
 ,-0.00326093,-0.05187819,0.08148963,-0.14237668,-0.00525420,0.00887280
 ,-0.00335798,0.00001985,0.00134671,-0.00327892,0.00257627,-0.00150369,
 0.00295048,-0.00187428,0.00148000,0.00025769,-0.00003766,0.00015700,-0
 .00019248,0.00036525,-0.00036082,-0.00077655,0.00018292,0.00001364,-0.
 00029113,-0.00020042,0.00072452,-0.00006575,-0.00015329,-0.00010865,0.
 00086731,0.00426369,-0.00024675,0.00389543,0.00015169,-0.00056982,-0.0
 0041510,0.00022491,0.00022366,0.00014147,-0.00003182,-0.00008052,-0.00
 115986,-0.00119946,-0.00116354,0.00336067,-0.00048103,0.00009732,-0.00
 019854,-0.00004698,0.00009712,0.00018411,-0.00008621,-0.00008437,0.000
 15654,0.00004207,0.00007907,-0.00019011,-0.00278583,-0.00209628,0.0016
 4832,0.00010850,-0.00190002,0.00079312,-0.00001269,-0.00005834,-0.0000
 3562,-0.00003943,-0.00001371,0.00000995,-0.00003060,0.00000204,-0.0000
 2240,0.00007153,0.00010889,0.00005554,0.00013265,-0.00002582,0.0000734
 2,0.17434810,-0.06640956,0.26683025,0.00315974,-0.00438877,0.00502963,
 -0.00000920,0.00028671,0.00077855,-0.03296203,0.00833891,-0.02351170,0
 .00252298,-0.00216458,0.00205308,-0.00000402,-0.00051544,0.00157321,0.
 00081271,0.00127155,-0.00141598,0.00051144,-0.00027759,-0.00037362,0.0
 0002907,-0.00007873,0.00013016,-0.00015295,0.00009981,0.00026471,-0.00
 007437,0.00007738,0.00016113,0.00009545,-0.00041427,0.00005773,0.00007
 677,0.00006607,-0.00048291,-0.00002411,-0.00016164,-0.00184271,-0.0000
 8196,0.00029689,0.00021170,-0.00011389,-0.00011494,-0.00007467,0.00001
 836,0.00004581,0.00065688,-0.00023977,-0.00007770,-0.00031836,0.000071
 87,-0.00017760,0.00016111,0.00002767,-0.00005720,-0.00010131,0.0000271
 7,0.00004834,-0.00007826,-0.00001199,-0.00004085,0.00008356,-0.0025322
 3,-0.00034839,0.00145589,0.00010072,-0.00022352,0.00026264,0.00000617,
 0.00003067,0.00001885,0.00001988,0.00000661,-0.00000452,0.00001516,-0.
 00000158,0.00001119,-0.00004196,-0.00006241,-0.00003176,-0.00007399,0.
 00001375,-0.00003983,-0.13694656,-0.04638419,-0.04993126,0.49618830,0.
 00295965,-0.00156642,0.00186792,-0.00030220,-0.00025958,0.00031811,0.0
 1738736,0.01202898,0.00679074,0.00295120,-0.00194317,0.00605478,0.0000
 1079,-0.00019632,0.00079764,0.00023791,-0.00072764,-0.00157753,0.00025
 243,-0.00029893,-0.00022544,0.00002117,-0.00003274,0.00008225,-0.00008
 863,0.00007021,0.00018097,-0.00004168,0.00003609,0.00010059,0.00006423
 ,-0.00022626,0.00002005,0.00004420,0.00002803,-0.00026662,-0.00115972,
 -0.00017578,-0.00110136,-0.00004533,0.00016920,0.00012311,-0.00006604,
 -0.00006559,-0.00004294,0.00000950,0.00002547,0.00036277,-0.00011975,0
 .00034272,-0.00019290,0.00009197,-0.00005007,0.00010778,0.00001066,-0.
 00004052,-0.00005281,0.00001425,0.00003088,-0.00004465,-0.00000834,-0.
 00002358,0.00005105,-0.00012858,0.00069593,0.00068431,-0.00015781,-0.0
 0041951,-0.00024867,0.00000371,0.00001752,0.00001063,0.00001122,0.0000
 0377,-0.00000273,0.00000896,-0.00000094,0.00000665,-0.00002280,-0.0000
 3398,-0.00001762,-0.00004068,0.00000741,-0.00002215,-0.06550041,-0.113
 88919,-0.02877665,-0.06171736,0.57579819,-0.00211409,0.00010859,0.0006
 7879,0.00154291,0.00095169,0.00023945,-0.02775395,-0.00005382,-0.02788
 875,0.00347664,-0.00386559,0.00266804,-0.00044669,-0.00036887,0.001125
 98,0.00064825,0.00069696,-0.00169584,0.00023139,0.00006371,-0.00020949
 ,0.00000464,-0.00004689,0.00008602,-0.00010909,0.00003582,0.00006803,-
 0.00003354,0.00006057,0.00008072,0.00007072,-0.00022570,0.00001668,0.0
 0004918,0.00003662,-0.00026290,-0.00055708,-0.00107850,-0.00061421,-0.
 00004195,0.00016373,0.00011826,-0.00006539,-0.00006603,-0.00004299,0.0
 0000732,0.00002192,0.00036646,-0.00032370,-0.00046845,-0.00075591,0.00
 002838,-0.00011116,0.00008056,0.00000458,-0.00004386,-0.00007294,0.000
 01154,0.00001749,-0.00004980,-0.00000124,-0.00002096,0.00004136,-0.000
 47784,0.00097400,0.00135118,-0.00001310,-0.00031527,0.00006459,0.00000
 344,0.00001700,0.00001025,0.00001103,0.00000399,-0.00000268,0.00000899
 ,-0.00000099,0.00000681,-0.00002480,-0.00003522,-0.00001819,-0.0000438
 0,0.00000770,-0.00002174,-0.04129768,-0.01406013,-0.08205319,-0.043550
 40,-0.04851589,0.56336397,0.00017831,-0.00033663,-0.00046413,0.0034121
 5,0.00183452,0.00193553,0.00258045,0.00291147,-0.00173801,-0.01039714,
 0.00799001,0.00788693,-0.00415564,0.00359404,0.00085436,-0.22939928,0.
 12499007,0.07250442,-0.00000893,0.00061314,-0.00012062,-0.00008424,-0.
 00014586,0.00017801,-0.00007560,-0.00001966,0.00004177,-0.00001968,0.0
 0003787,0.00004232,0.00000567,-0.00011704,0.00005958,0.00002923,0.0000
 4930,-0.00016516,0.00041568,-0.00241534,0.00003419,-0.00002360,0.00011
 292,0.00009085,-0.00004491,-0.00004232,-0.00002347,0.00000333,0.000012
 41,0.00021445,-0.00028800,-0.00022462,-0.00000452,-0.00071298,-0.00238
 727,-0.00050744,-0.00000050,-0.00001853,-0.00001977,0.00000628,0.00003
 234,0.00000380,-0.00000486,-0.00001432,0.00002677,-0.00000801,-0.00026
 738,0.00004734,-0.00036311,0.00045509,-0.00061639,0.00000313,0.0000115
 2,0.00000682,0.00000766,0.00000321,-0.00000189,0.00000619,0.00000004,0
 .00000448,-0.00001389,-0.00002027,-0.00001065,-0.00002562,0.00000424,-
 0.00001327,-0.00131936,0.00046804,-0.00048640,0.00029804,0.00037601,0.
 00030658,0.24019135,-0.00026677,-0.00046717,0.00066621,0.00208130,0.00
 468480,0.00136665,0.00291647,0.00322882,0.00378351,0.01510499,-0.00537
 982,-0.00708597,-0.00315711,0.00313008,0.00112569,0.12475472,-0.113026
 24,-0.03899910,0.00017217,0.00046622,0.00026053,-0.00010710,-0.0000127
 7,0.00006375,-0.00001212,-0.00007281,-0.00003483,0.00000320,-0.0000264
 7,-0.00003962,-0.00004456,0.00004260,0.00002929,-0.00001110,0.00001978
 ,0.00008097,-0.00135709,-0.00129359,-0.00190345,0.00001274,-0.00002937
 ,-0.00001649,0.00001392,0.00001594,0.00001275,-0.00000664,-0.00001303,
 -0.00011434,-0.00025178,-0.00038645,-0.00015954,-0.00222108,-0.0022452
 4,-0.00097881,0.00000288,-0.00001944,0.00001860,0.00000409,0.00000712,
 0.00005738,-0.00000177,0.00000507,-0.00001030,-0.00032724,-0.00034046,
 0.00000737,-0.00084978,-0.00012428,0.00120659,-0.00000042,-0.00000333,
 -0.00000208,-0.00000280,-0.00000083,0.00000101,-0.00000142,0.00000073,
 -0.00000137,0.00000824,0.00001196,0.00000576,0.00001243,-0.00000222,0.
 00000736,0.00119646,-0.00109428,-0.00011163,-0.00044637,-0.00027782,-0
 .00015994,-0.13734950,0.11304435,-0.00043485,0.00054387,-0.00101689,0.
 00108489,0.00221260,-0.00481555,-0.00042247,0.00249248,-0.00237484,-0.
 01706779,0.01105460,0.00908575,0.02557999,-0.01668931,-0.00531702,0.07
 252984,-0.03862100,-0.08560968,0.00113648,-0.00091500,0.00034871,0.000
 05962,0.00020775,-0.00042123,-0.00005662,-0.00009796,0.00001156,0.0000
 2949,-0.00003204,-0.00009055,-0.00008396,0.00003409,0.00000933,-0.0000
 2899,0.00000068,0.00022260,-0.00087792,-0.00104609,0.00217315,0.000043
 08,-0.00014758,-0.00014747,0.00006597,0.00006038,0.00003478,-0.0000106
 7,-0.00002209,-0.00028445,0.00001890,-0.00021395,0.00008807,-0.0008929
 0,-0.00070921,0.00106147,0.00001734,-0.00001523,0.00004433,0.00000711,
 0.00002049,0.00004857,0.00000528,0.00001851,-0.00004058,0.00003941,-0.
 00019727,0.00013802,0.00055783,0.00026911,-0.00061510,-0.00000481,-0.0
 0001584,-0.00000942,-0.00001149,-0.00000320,0.00000445,-0.00000888,-0.
 00000050,-0.00000661,0.00001661,0.00002691,0.00001527,0.00003176,-0.00
 000578,0.00001729,-0.00141953,0.00072508,0.00017332,0.00009412,0.00026
 477,0.00017174,-0.07992471,0.04091296,0.08718207,-0.00069112,0.0002467
 8,-0.00008898,-0.00003745,0.00045144,-0.00015923,-0.00169252,-0.003567
 91,-0.00091368,-0.00030925,0.00048245,-0.00109833,0.00013735,0.0000027
 6,-0.00042315,0.00009114,0.00006367,0.00048649,-0.00007437,0.00009007,
 0.00010991,-0.00000278,0.00001059,-0.00002967,0.00002824,-0.00001691,-
 0.00006899,0.00000963,-0.00001615,-0.00003160,-0.00002186,0.00007818,-
 0.00000975,-0.00001510,-0.00001271,0.00009160,-0.00007655,-0.00001282,
 0.00032346,0.00001552,-0.00005908,-0.00004226,0.00002328,0.00002328,0.
 00001468,-0.00000309,-0.00000902,-0.00012609,-0.00004765,-0.00020997,-
 0.00010221,-0.00004129,-0.00000999,-0.00004518,-0.00000178,0.00001176,
 0.00001545,-0.00000228,-0.00001313,0.00001725,0.00000318,0.00000829,-0
 .00001672,0.00006131,-0.00002986,-0.00010023,-0.00002384,-0.00004091,-
 0.00001428,-0.00000127,-0.00000604,-0.00000370,-0.00000410,-0.00000142
 ,0.00000102,-0.00000312,0.00000025,-0.00000226,0.00000829,0.00001199,0
 .00000605,0.00001446,-0.00000240,0.00000775,-0.01998189,0.01607228,-0.
 02354399,-0.08924237,0.07021401,-0.05722867,-0.00009436,0.00006221,-0.
 00003561,0.10324540,-0.00021007,0.00032187,-0.00037366,0.00020908,0.00
 004492,-0.00004159,-0.00241523,0.00033371,-0.00164103,-0.00025494,0.00
 026914,-0.00059216,-0.00001087,-0.00001291,0.00002526,-0.00004565,0.00
 013024,0.00013618,-0.00001608,0.00003479,-0.00001680,-0.00000132,-0.00
 000323,0.00000149,-0.00000016,-0.00000476,-0.00000929,0.00000193,0.000
 00571,-0.00000049,0.00000107,-0.00000393,0.00000155,0.00000065,0.00000
 153,-0.00000464,0.00009078,0.00004410,0.00014207,-0.00000041,0.0000023
 6,0.00000129,-0.00000098,-0.00000117,-0.00000069,0.00000020,0.00000052
 ,0.00000686,-0.00000651,-0.00009901,-0.00006348,-0.00000862,-0.0000105
 7,-0.00000243,-0.00000053,0.00000048,-0.00000128,-0.00000163,0.0000002
 3,-0.00000122,0.00000051,-0.00000009,-0.00000067,-0.00005958,-0.000145
 58,0.00005003,0.00002171,0.00001529,0.00005067,0.,0.00000026,0.0000001
 5,0.00000020,0.00000010,-0.00000004,0.00000014,-0.00000002,0.00000010,
 -0.00000069,-0.00000082,-0.00000043,-0.00000101,0.00000006,-0.00000045
 ,-0.01073294,0.01288898,-0.01358474,0.07880849,-0.18770674,0.11893453,
 -0.00001970,0.00002431,-0.00002924,-0.07720053,0.19322888,-0.00049937,
 0.00015677,0.00011383,0.00002297,0.00010795,0.00004476,-0.00149804,-0.
 00265571,0.00047345,-0.00006221,0.00000236,-0.00125874,-0.00003419,0.0
 0007921,-0.00020475,0.00000453,0.00010479,0.00019178,-0.00006101,0.000
 03921,0.00006474,-0.00000669,0.00001191,-0.00002520,0.00001989,-0.0000
 1653,-0.00003821,0.00001279,-0.00001560,-0.00002841,-0.00001804,0.0000
 6446,-0.00000578,-0.00001299,-0.00000750,0.00007571,0.00001683,0.00008
 096,0.00058822,0.00001278,-0.00004868,-0.00003416,0.00001900,0.0000192
 3,0.00001185,-0.00000300,-0.00000766,-0.00010324,0.00005759,-0.0000057
 7,0.00007129,-0.00002796,0.00000750,-0.00002850,-0.00000189,0.00001119
 ,0.00001490,-0.00000312,-0.00000971,0.00001296,0.00000213,0.00000649,-
 0.00001272,-0.00000056,-0.00008274,-0.00011821,0.00000091,-0.00003202,
 0.00001502,-0.00000101,-0.00000497,-0.00000315,-0.00000352,-0.00000115
 ,0.00000084,-0.00000253,0.00000010,-0.00000174,0.00000670,0.00000999,0
 .00000504,0.00001187,-0.00000208,0.00000646,-0.01237555,0.00869446,-0.
 01232442,-0.06088021,0.11159434,-0.14952065,-0.00005058,0.00006757,-0.
 00002027,0.07657149,-0.12241119,0.16057453,0.00016549,0.00039762,-0.00
 024906,-0.00029044,0.00034866,-0.00035253,0.00328597,-0.00399984,0.005
 27558,-0.00087562,0.00126182,-0.00022756,0.00025370,-0.00004881,-0.000
 41770,-0.00002178,-0.00011032,0.00057752,-0.00006461,0.00001644,0.0000
 8798,0.00001252,0.00000724,-0.00001563,0.00001558,0.00000513,-0.000046
 15,0.00000162,-0.00000992,-0.00000740,-0.00001048,0.00004404,-0.000008
 98,-0.00000756,-0.00001464,0.00004925,-0.00013293,0.00008701,-0.000210
 53,0.00000916,-0.00003101,-0.00002207,0.00001141,0.00001162,0.00000756
 ,-0.00000062,-0.00000409,-0.00007144,0.00001257,-0.00026532,-0.0001501
 4,-0.00001233,-0.00001421,-0.00004119,-0.00000285,0.00000221,0.0000082
 3,-0.00000069,-0.00000794,0.00001157,0.00000141,0.00000478,-0.00000864
 ,0.00047765,-0.00021105,-0.00041257,-0.00001637,0.00004471,-0.00006411
 ,-0.00000062,-0.00000322,-0.00000200,-0.00000200,-0.00000061,0.0000003
 9,-0.00000148,0.00000019,-0.00000107,0.00000472,0.00000671,0.00000302,
 0.00000809,-0.00000137,0.00000396,-0.03172725,-0.01548067,0.00399919,-
 0.15752583,-0.04145946,0.11793754,-0.00008871,0.00004821,-0.00005450,0
 .01155160,0.00351356,-0.00868320,0.17995066,-0.00034450,0.00041474,-0.
 00003550,-0.00009186,-0.00002680,-0.00020377,0.00279814,-0.00151260,0.
 00134023,-0.00042071,0.00035351,-0.00067744,0.00008578,0.00001228,-0.0
 0022413,-0.00000667,-0.00003707,0.00030931,-0.00005878,0.00004666,0.00
 004162,0.00000162,0.00001106,-0.00001366,0.00002159,-0.00000891,-0.000
 03515,0.00000491,-0.00000684,-0.00001399,-0.00001259,0.00004490,-0.000
 00583,-0.00000848,-0.00000860,0.00005065,0.00038288,0.00002956,0.00024
 071,0.00000947,-0.00003352,-0.00002308,0.00001242,0.00001263,0.0000077
 5,-0.00000124,-0.00000481,-0.00006995,0.00007429,-0.00006495,-0.000077
 49,-0.00001064,0.00000582,-0.00002187,-0.00000358,0.00000468,0.0000113
 2,-0.00000183,-0.00000529,0.00000992,0.00000121,0.00000431,-0.00000955
 ,0.00007645,-0.00027097,-0.00030395,0.00003340,0.00013066,0.00006449,-
 0.00000067,-0.00000341,-0.00000221,-0.00000236,-0.00000069,0.00000050,
 -0.00000161,0.00000005,-0.00000105,0.00000456,0.00000677,0.00000318,0.
 00000797,-0.00000136,0.00000420,-0.02032181,-0.00599217,0.00539592,-0.
 04279191,-0.07245667,0.04940226,-0.00005146,0.00003937,-0.00002897,-0.
 01481733,-0.00451326,0.01587820,0.05816280,0.07466247,0.00088638,-0.00
 066232,0.00062607,-0.00007958,0.00017970,0.00000919,-0.00087608,-0.001
 57670,0.00323543,0.00002748,0.00071313,-0.00020025,0.00016012,-0.00005
 681,-0.00006332,-0.00005501,-0.00002803,0.00024196,0.00000095,-0.00007
 914,-0.00001606,0.00000681,0.00000141,0.00000177,-0.00001422,0.0000128
 2,0.00001967,-0.00000146,-0.00000273,0.00001068,0.00000563,-0.00001683
 ,0.00000165,0.00000249,-0.00000043,-0.00002025,0.00014397,0.00010111,-
 0.00002287,-0.00000378,0.00001312,0.00000953,-0.00000480,-0.00000469,-
 0.00000310,0.00000067,0.00000214,0.00002524,-0.00008566,-0.00017918,-0
 .00025612,0.00000707,-0.00002489,-0.00000498,0.00000059,-0.00000506,-0
 .00000638,0.00000178,0.00000064,-0.00000280,-0.00000038,-0.00000150,0.
 00000556,-0.00005442,-0.00017747,-0.00013724,0.00003433,0.00004759,0.0
 0004073,0.00000029,0.00000136,0.00000086,0.00000084,0.00000020,-0.0000
 0024,0.00000065,-0.00000002,0.00000043,-0.00000137,-0.00000225,-0.0000
 0121,-0.00000241,0.00000047,-0.00000149,-0.01784694,-0.00715988,0.0131
 0042,0.12161342,0.05250946,-0.18419022,-0.00004199,-0.00003774,-0.0000
 3726,0.01257970,0.00349806,-0.01173494,-0.12659001,-0.05288332,0.18972
 550,-0.00048065,0.00086518,-0.00050941,0.00013801,-0.00003648,-0.00003
 139,0.00394675,-0.00366289,0.00222905,0.00030548,0.00011026,-0.0009675
 3,-0.00003963,0.00000546,-0.00013805,0.00006129,-0.00008479,0.00021182
 ,-0.00004892,0.00004701,-0.00003326,-0.00000128,0.00000285,0.00000616,
 0.00000383,-0.00001084,-0.00001445,0.00000593,0.00000747,-0.00000300,-
 0.00000431,0.00000776,-0.00000063,-0.00000086,-0.00000158,0.00000642,-
 0.00013948,-0.00000861,0.00089016,0.00000249,-0.00000693,-0.00000510,0
 .00000227,0.00000223,0.00000145,-0.00000005,-0.00000013,-0.00000633,-0
 .00000710,-0.00004915,0.00008191,-0.00000672,0.00000653,0.00000505,-0.
 00000154,0.00000392,0.00000525,-0.00000305,-0.00000225,0.00000203,0.00
 000130,0.00000097,-0.00000299,-0.00024650,-0.00035524,-0.00016480,-0.0
 0006732,0.00001504,0.00018055,-0.00000014,-0.00000071,-0.00000052,-0.0
 0000049,-0.00000005,0.00000012,-0.00000031,-0.00000006,-0.00000014,-0.
 00000004,0.00000046,0.00000025,0.00000049,-0.00000025,0.00000044,-0.00
 021032,-0.02918233,-0.02346999,-0.08394427,0.07618957,0.04973988,-0.00
 000906,0.00002062,0.00001798,-0.00282139,0.00833915,0.00746621,-0.0049
 7999,0.01727053,0.01018493,0.08854559,-0.00037703,0.00042183,-0.000474
 12,0.00003658,0.00000535,0.00002431,0.00136488,-0.00113811,0.00341754,
 -0.00031124,0.00047065,-0.00185248,-0.00001316,0.00008205,-0.00021861,
 -0.00025089,-0.00009860,0.00031922,-0.00005904,0.00004529,0.00003919,-
 0.00000380,0.00000669,-0.00001437,0.00001554,-0.00001325,-0.00003318,0
 .00000985,-0.00000648,-0.00001957,-0.00001386,0.00004612,-0.00000352,-
 0.00000851,-0.00000640,0.00005387,0.00068228,0.00015016,0.00076931,0.0
 0000920,-0.00003492,-0.00002613,0.00001387,0.00001372,0.00000935,-0.00
 000217,-0.00000484,-0.00007266,0.00003352,-0.00002509,0.00006063,-0.00
 001176,0.00002261,-0.00001492,-0.00000198,0.00001006,0.00001440,-0.000
 00369,-0.00000747,0.00000933,0.00000188,0.00000494,-0.00001014,-0.0002
 9668,-0.00041812,-0.00024978,0.00008614,0.00009821,0.00018303,-0.00000
 076,-0.00000366,-0.00000216,-0.00000224,-0.00000079,0.00000056,-0.0000
 0197,0.00000026,-0.00000153,0.00000449,0.00000670,0.00000371,0.0000082
 5,-0.00000151,0.00000453,-0.00829863,-0.01252909,-0.01394969,0.0710540
 5,-0.20886292,-0.10205932,-0.00006634,0.00009447,-0.00005402,0.0081961
 8,-0.01484538,-0.01163539,-0.00230026,0.00916847,0.00581777,-0.0694927
 1,0.22734905,-0.00012084,0.00066981,-0.00063452,0.00017821,-0.00013451
 ,0.00001674,0.00271616,-0.00289944,0.00208456,-0.00020816,0.00020661,-
 0.00051923,-0.00006659,0.00008890,0.00001946,-0.00008457,0.00004116,-0
 .00000977,-0.00005867,0.00001453,-0.00001774,-0.00000644,0.00000670,-0
 .00001145,0.00001015,-0.00001733,-0.00000812,0.00001190,-0.00000282,-0
 .00001616,-0.00000642,0.00002366,0.00000107,-0.00000689,0.00000150,0.0
 0003076,0.00010412,0.00019185,0.00046400,0.00000479,-0.00001800,-0.000
 01407,0.00000731,0.00000723,0.00000506,-0.00000136,-0.00000278,-0.0000
 4070,-0.00003477,-0.00000240,0.00009334,-0.00001550,0.00001007,-0.0000
 0106,-0.00000157,0.00000571,0.00000698,-0.00000498,-0.00000152,0.00000
 341,0.00000106,0.00000267,-0.00000592,0.00010061,-0.00021967,-0.000141
 78,0.00004962,0.00009358,0.00005035,-0.00000041,-0.00000191,-0.0000010
 9,-0.00000110,-0.00000042,0.00000028,-0.00000105,0.00000018,-0.0000009
 1,0.00000237,0.00000368,0.00000211,0.00000467,-0.00000110,0.00000257,-
 0.00839479,-0.01497007,-0.01036993,0.04801993,-0.10083996,-0.12313939,
 -0.00004919,-0.00001872,-0.00002355,-0.00614028,0.01592729,0.01319771,
 0.00967471,-0.01812934,-0.01035598,-0.04568206,0.11996484,0.12933300\\
 0.00000199,0.00000385,-0.00000454,0.00000085,-0.00000234,0.00000829,-0
 .00000044,-0.00000526,0.00000706,0.00000473,0.00000033,-0.00000543,-0.
 00000441,-0.00000027,0.00000132,-0.00000007,0.00000199,-0.00000014,0.0
 0000255,-0.00000236,-0.00000794,-0.00000366,-0.00000010,0.00000344,0.0
 0000163,0.00000313,-0.00000091,0.00000098,0.00000102,-0.00000084,0.000
 00428,-0.00000518,-0.00000648,-0.00000492,0.00000052,0.00000902,-0.000
 00365,0.00000056,0.00000120,-0.00000408,0.00000362,0.00000083,0.000001
 87,0.00000002,0.00000066,0.00000118,-0.00000230,-0.00000496,0.00000017
 ,0.00000008,-0.00000075,0.00000138,-0.00000022,-0.00000101,-0.00000038
 ,0.00000009,0.00000095,-0.00000036,-0.00000121,0.00000143,-0.00000021,
 -0.00000063,-0.00000032,0.00000208,0.00000193,0.00000045,0.00000151,-0
 .00000148,0.00000130,-0.00000071,-0.00000059,0.00000076,-0.00000122,0.
 00000055,0.00000008,-0.00000046,-0.00000021,-0.00000056,0.00000038,0.0
 0000085,-0.00000021,-0.00000108,-0.00000104,-0.00000097,-0.00000152,0.
 00000410,-0.00000094,-0.00000020,-0.00000207,-0.00000098,0.00000070,0.
 00000014,0.00000068,0.00000067,0.00000035,-0.00000066,0.00000004,0.000
 00137,-0.00000028,0.00000038,0.00000077,0.00000043\\\@
 The archive entry for this job was punched.


      HUMANKIND PERIODICALLY GOES THROUGH A SPEEDUP OF ITS AFFAIRS, 
      THEREBY EXPERIENCING THE RACE BETWEEN THE RENEWABLE VITALITY
      OF THE LIVING, AND THE BECKONING VITIATION OF DECADENCE.
      IN THIS PERIODIC RACE, ANY PAUSE BECOMES A LUXURY.
      ONLY THEN CAN ONE REFLECT THAT ALL IS PERMITTED;
      ALL IS POSSIBLE.

                              -- THE APOCRYPHA OF MUAD'DIB
                                 CHILDREN OF DUNE, BY FRANK HERBERT
 Job cpu time:       0 days  2 hours 57 minutes 33.7 seconds.
 Elapsed time:       0 days  0 hours 22 minutes 14.6 seconds.
 File lengths (MBytes):  RWF=    483 Int=      0 D2E=      0 Chk=     19 Scr=      1
 Normal termination of Gaussian 16 at Fri Oct 28 16:40:01 2022.
